
     Program PWSCF v.7.2 starts on 16Jun2025 at 20:22: 2 

     This program is part of the open-source Quantum ESPRESSO suite
     for quantum simulation of materials; please cite
         "P. Giannozzi et al., J. Phys.:Condens. Matter 21 395502 (2009);
         "P. Giannozzi et al., J. Phys.:Condens. Matter 29 465901 (2017);
         "P. Giannozzi et al., J. Chem. Phys. 152 154105 (2020);
          URL http://www.quantum-espresso.org", 
     in publications or presentations arising from this work. More details at
     http://www.quantum-espresso.org/quote

     Parallel version (MPI & OpenMP), running on       4 processor cores
     Number of MPI processes:                 4
     Threads/MPI process:                     1

     MPI processes distributed on     1 nodes
     8026 MiB available memory on the printing compute node when the environment starts

     Reading input from svo.nscf.in

     Current dimensions of program PWSCF are:
     Max number of different atomic species (ntypx) = 10
     Max number of k-points (npk) =  40000
     Max angular momentum in pseudopotentials (lmaxx) =  4

     Atomic positions and unit cell read from directory:
     ./QE_tmp/svo.save/
     Atomic positions from file used, from input discarded


     R & G space division:  proc/nbgrp/npool/nimage =       4
     Subspace diagonalization in iterative solution of the eigenvalue problem:
     a serial algorithm will be used


     Parallelization info
     --------------------
     sticks:   dense  smooth     PW     G-vecs:    dense   smooth      PW
     Min         765     251     85                31640     6075    1173
     Max         766     252     86                31641     6078    1176
     Sum        3061    1005    341               126563    24303    4697

     Using Slab Decomposition



     bravais-lattice index     =            0
     lattice parameter (alat)  =       7.2612  a.u.
     unit-cell volume          =     387.9249 (a.u.)^3
     number of atoms/cell      =            5
     number of atomic types    =            3
     number of electrons       =        41.00
     number of Kohn-Sham states=           25
     kinetic-energy cutoff     =      60.0000  Ry
     charge density cutoff     =     720.0000  Ry
     Exchange-correlation= SLA  PW   PBE  PBE
                           (   1   4   3   4   0   0   0)

     celldm(1)=   7.261200  celldm(2)=   0.000000  celldm(3)=   0.000000
     celldm(4)=   0.000000  celldm(5)=   0.000000  celldm(6)=   0.000000

     crystal axes: (cart. coord. in units of alat)
               a(1) = (   1.004402   0.000000   0.000000 )  
               a(2) = (   0.000000   1.004402   0.000000 )  
               a(3) = (   0.000000   0.000000   1.004402 )  

     reciprocal axes: (cart. coord. in units 2 pi/alat)
               b(1) = (  0.995617  0.000000  0.000000 )  
               b(2) = (  0.000000  0.995617  0.000000 )  
               b(3) = (  0.000000  0.000000  0.995617 )  


     PseudoPot. # 1 for Sr read from file:
     ./pseudo/sr_pbe_v1.uspp.F.UPF
     MD5 check sum: 6b418c05fbe9db5448babca5e47b7a5b
     Pseudo is Ultrasoft + core correction, Zval = 10.0
     Generated by new atomic code, or converted to UPF format
     Using radial grid of  883 points,  6 beta functions with: 
                l(1) =   0
                l(2) =   0
                l(3) =   1
                l(4) =   1
                l(5) =   2
                l(6) =   2
     Q(r) pseudized with  6 coefficients,  rinner =    1.400   1.400   1.400
                                                       1.400   1.400

     PseudoPot. # 2 for V  read from file:
     ./pseudo/v_pbe_v1.4.uspp.F.UPF
     MD5 check sum: 22b79981416ebb76fdaf5b1b8640f6fb
     Pseudo is Ultrasoft + core correction, Zval = 13.0
     Generated by new atomic code, or converted to UPF format
     Using radial grid of  853 points,  6 beta functions with: 
                l(1) =   0
                l(2) =   0
                l(3) =   1
                l(4) =   1
                l(5) =   2
                l(6) =   2
     Q(r) pseudized with  8 coefficients,  rinner =    1.100   1.100   1.100
                                                       1.100   1.100

     PseudoPot. # 3 for O  read from file:
     ./pseudo/o_pbe_v1.2.uspp.F.UPF
     MD5 check sum: 734c27235a0248c51dbae37a1fbe46ec
     Pseudo is Ultrasoft + core correction, Zval =  6.0
     Generated by new atomic code, or converted to UPF format
     Using radial grid of  737 points,  5 beta functions with: 
                l(1) =   0
                l(2) =   0
                l(3) =   1
                l(4) =   1
                l(5) =   2
     Q(r) pseudized with  8 coefficients,  rinner =    0.900   0.900   0.900
                                                       0.900   0.900

     atomic species   valence    mass     pseudopotential
        Sr            10.00    87.62000     Sr( 1.00)
        V             13.00    50.94150     V ( 1.00)
        O              6.00    15.99940     O ( 1.00)

     No symmetry found


                                    s                        frac. trans.

      isym =  1     identity                                     

 cryst.   s( 1) = (     1          0          0      )
                  (     0          1          0      )
                  (     0          0          1      )

 cart.    s( 1) = (  1.0000000  0.0000000  0.0000000 )
                  (  0.0000000  1.0000000  0.0000000 )
                  (  0.0000000  0.0000000  1.0000000 )


   Cartesian axes

     site n.     atom                  positions (alat units)
         1           Sr  tau(   1) = (   0.0000000   0.0000000   0.0000000  )
         2           V   tau(   2) = (   0.5022009   0.5022009   0.5022009  )
         3           O   tau(   3) = (   0.5022009   0.5022009   0.0000000  )
         4           O   tau(   4) = (   0.5022009   0.0000000   0.5022009  )
         5           O   tau(   5) = (   0.0000000   0.5022009   0.5022009  )

   Crystallographic axes

     site n.     atom                  positions (cryst. coord.)
         1           Sr  tau(   1) = (  0.0000000  0.0000000  0.0000000  )
         2           V   tau(   2) = (  0.5000000  0.5000000  0.5000000  )
         3           O   tau(   3) = (  0.5000000  0.5000000  0.0000000  )
         4           O   tau(   4) = (  0.5000000  0.0000000  0.5000000  )
         5           O   tau(   5) = (  0.0000000  0.5000000  0.5000000  )

     number of k points=   125  Methfessel-Paxton smearing, width (Ry)=  0.0200
                       cart. coord. in units 2pi/alat
        k(    1) = (   0.0000000   0.0000000   0.0000000), wk =   0.0160000
        k(    2) = (   0.0000000   0.0000000   0.1991235), wk =   0.0160000
        k(    3) = (   0.0000000   0.0000000   0.3982470), wk =   0.0160000
        k(    4) = (   0.0000000   0.0000000   0.5973705), wk =   0.0160000
        k(    5) = (   0.0000000   0.0000000   0.7964940), wk =   0.0160000
        k(    6) = (   0.0000000   0.1991235   0.0000000), wk =   0.0160000
        k(    7) = (   0.0000000   0.1991235   0.1991235), wk =   0.0160000
        k(    8) = (   0.0000000   0.1991235   0.3982470), wk =   0.0160000
        k(    9) = (   0.0000000   0.1991235   0.5973705), wk =   0.0160000
        k(   10) = (   0.0000000   0.1991235   0.7964940), wk =   0.0160000
        k(   11) = (   0.0000000   0.3982470   0.0000000), wk =   0.0160000
        k(   12) = (   0.0000000   0.3982470   0.1991235), wk =   0.0160000
        k(   13) = (   0.0000000   0.3982470   0.3982470), wk =   0.0160000
        k(   14) = (   0.0000000   0.3982470   0.5973705), wk =   0.0160000
        k(   15) = (   0.0000000   0.3982470   0.7964940), wk =   0.0160000
        k(   16) = (   0.0000000   0.5973705   0.0000000), wk =   0.0160000
        k(   17) = (   0.0000000   0.5973705   0.1991235), wk =   0.0160000
        k(   18) = (   0.0000000   0.5973705   0.3982470), wk =   0.0160000
        k(   19) = (   0.0000000   0.5973705   0.5973705), wk =   0.0160000
        k(   20) = (   0.0000000   0.5973705   0.7964940), wk =   0.0160000
        k(   21) = (   0.0000000   0.7964940   0.0000000), wk =   0.0160000
        k(   22) = (   0.0000000   0.7964940   0.1991235), wk =   0.0160000
        k(   23) = (   0.0000000   0.7964940   0.3982470), wk =   0.0160000
        k(   24) = (   0.0000000   0.7964940   0.5973705), wk =   0.0160000
        k(   25) = (   0.0000000   0.7964940   0.7964940), wk =   0.0160000
        k(   26) = (   0.1991235   0.0000000   0.0000000), wk =   0.0160000
        k(   27) = (   0.1991235   0.0000000   0.1991235), wk =   0.0160000
        k(   28) = (   0.1991235   0.0000000   0.3982470), wk =   0.0160000
        k(   29) = (   0.1991235   0.0000000   0.5973705), wk =   0.0160000
        k(   30) = (   0.1991235   0.0000000   0.7964940), wk =   0.0160000
        k(   31) = (   0.1991235   0.1991235   0.0000000), wk =   0.0160000
        k(   32) = (   0.1991235   0.1991235   0.1991235), wk =   0.0160000
        k(   33) = (   0.1991235   0.1991235   0.3982470), wk =   0.0160000
        k(   34) = (   0.1991235   0.1991235   0.5973705), wk =   0.0160000
        k(   35) = (   0.1991235   0.1991235   0.7964940), wk =   0.0160000
        k(   36) = (   0.1991235   0.3982470   0.0000000), wk =   0.0160000
        k(   37) = (   0.1991235   0.3982470   0.1991235), wk =   0.0160000
        k(   38) = (   0.1991235   0.3982470   0.3982470), wk =   0.0160000
        k(   39) = (   0.1991235   0.3982470   0.5973705), wk =   0.0160000
        k(   40) = (   0.1991235   0.3982470   0.7964940), wk =   0.0160000
        k(   41) = (   0.1991235   0.5973705   0.0000000), wk =   0.0160000
        k(   42) = (   0.1991235   0.5973705   0.1991235), wk =   0.0160000
        k(   43) = (   0.1991235   0.5973705   0.3982470), wk =   0.0160000
        k(   44) = (   0.1991235   0.5973705   0.5973705), wk =   0.0160000
        k(   45) = (   0.1991235   0.5973705   0.7964940), wk =   0.0160000
        k(   46) = (   0.1991235   0.7964940   0.0000000), wk =   0.0160000
        k(   47) = (   0.1991235   0.7964940   0.1991235), wk =   0.0160000
        k(   48) = (   0.1991235   0.7964940   0.3982470), wk =   0.0160000
        k(   49) = (   0.1991235   0.7964940   0.5973705), wk =   0.0160000
        k(   50) = (   0.1991235   0.7964940   0.7964940), wk =   0.0160000
        k(   51) = (   0.3982470   0.0000000   0.0000000), wk =   0.0160000
        k(   52) = (   0.3982470   0.0000000   0.1991235), wk =   0.0160000
        k(   53) = (   0.3982470   0.0000000   0.3982470), wk =   0.0160000
        k(   54) = (   0.3982470   0.0000000   0.5973705), wk =   0.0160000
        k(   55) = (   0.3982470   0.0000000   0.7964940), wk =   0.0160000
        k(   56) = (   0.3982470   0.1991235   0.0000000), wk =   0.0160000
        k(   57) = (   0.3982470   0.1991235   0.1991235), wk =   0.0160000
        k(   58) = (   0.3982470   0.1991235   0.3982470), wk =   0.0160000
        k(   59) = (   0.3982470   0.1991235   0.5973705), wk =   0.0160000
        k(   60) = (   0.3982470   0.1991235   0.7964940), wk =   0.0160000
        k(   61) = (   0.3982470   0.3982470   0.0000000), wk =   0.0160000
        k(   62) = (   0.3982470   0.3982470   0.1991235), wk =   0.0160000
        k(   63) = (   0.3982470   0.3982470   0.3982470), wk =   0.0160000
        k(   64) = (   0.3982470   0.3982470   0.5973705), wk =   0.0160000
        k(   65) = (   0.3982470   0.3982470   0.7964940), wk =   0.0160000
        k(   66) = (   0.3982470   0.5973705   0.0000000), wk =   0.0160000
        k(   67) = (   0.3982470   0.5973705   0.1991235), wk =   0.0160000
        k(   68) = (   0.3982470   0.5973705   0.3982470), wk =   0.0160000
        k(   69) = (   0.3982470   0.5973705   0.5973705), wk =   0.0160000
        k(   70) = (   0.3982470   0.5973705   0.7964940), wk =   0.0160000
        k(   71) = (   0.3982470   0.7964940   0.0000000), wk =   0.0160000
        k(   72) = (   0.3982470   0.7964940   0.1991235), wk =   0.0160000
        k(   73) = (   0.3982470   0.7964940   0.3982470), wk =   0.0160000
        k(   74) = (   0.3982470   0.7964940   0.5973705), wk =   0.0160000
        k(   75) = (   0.3982470   0.7964940   0.7964940), wk =   0.0160000
        k(   76) = (   0.5973705   0.0000000   0.0000000), wk =   0.0160000
        k(   77) = (   0.5973705   0.0000000   0.1991235), wk =   0.0160000
        k(   78) = (   0.5973705   0.0000000   0.3982470), wk =   0.0160000
        k(   79) = (   0.5973705   0.0000000   0.5973705), wk =   0.0160000
        k(   80) = (   0.5973705   0.0000000   0.7964940), wk =   0.0160000
        k(   81) = (   0.5973705   0.1991235   0.0000000), wk =   0.0160000
        k(   82) = (   0.5973705   0.1991235   0.1991235), wk =   0.0160000
        k(   83) = (   0.5973705   0.1991235   0.3982470), wk =   0.0160000
        k(   84) = (   0.5973705   0.1991235   0.5973705), wk =   0.0160000
        k(   85) = (   0.5973705   0.1991235   0.7964940), wk =   0.0160000
        k(   86) = (   0.5973705   0.3982470   0.0000000), wk =   0.0160000
        k(   87) = (   0.5973705   0.3982470   0.1991235), wk =   0.0160000
        k(   88) = (   0.5973705   0.3982470   0.3982470), wk =   0.0160000
        k(   89) = (   0.5973705   0.3982470   0.5973705), wk =   0.0160000
        k(   90) = (   0.5973705   0.3982470   0.7964940), wk =   0.0160000
        k(   91) = (   0.5973705   0.5973705   0.0000000), wk =   0.0160000
        k(   92) = (   0.5973705   0.5973705   0.1991235), wk =   0.0160000
        k(   93) = (   0.5973705   0.5973705   0.3982470), wk =   0.0160000
        k(   94) = (   0.5973705   0.5973705   0.5973705), wk =   0.0160000
        k(   95) = (   0.5973705   0.5973705   0.7964940), wk =   0.0160000
        k(   96) = (   0.5973705   0.7964940   0.0000000), wk =   0.0160000
        k(   97) = (   0.5973705   0.7964940   0.1991235), wk =   0.0160000
        k(   98) = (   0.5973705   0.7964940   0.3982470), wk =   0.0160000
        k(   99) = (   0.5973705   0.7964940   0.5973705), wk =   0.0160000
        k(  100) = (   0.5973705   0.7964940   0.7964940), wk =   0.0160000
        k(  101) = (   0.7964940   0.0000000   0.0000000), wk =   0.0160000
        k(  102) = (   0.7964940   0.0000000   0.1991235), wk =   0.0160000
        k(  103) = (   0.7964940   0.0000000   0.3982470), wk =   0.0160000
        k(  104) = (   0.7964940   0.0000000   0.5973705), wk =   0.0160000
        k(  105) = (   0.7964940   0.0000000   0.7964940), wk =   0.0160000
        k(  106) = (   0.7964940   0.1991235   0.0000000), wk =   0.0160000
        k(  107) = (   0.7964940   0.1991235   0.1991235), wk =   0.0160000
        k(  108) = (   0.7964940   0.1991235   0.3982470), wk =   0.0160000
        k(  109) = (   0.7964940   0.1991235   0.5973705), wk =   0.0160000
        k(  110) = (   0.7964940   0.1991235   0.7964940), wk =   0.0160000
        k(  111) = (   0.7964940   0.3982470   0.0000000), wk =   0.0160000
        k(  112) = (   0.7964940   0.3982470   0.1991235), wk =   0.0160000
        k(  113) = (   0.7964940   0.3982470   0.3982470), wk =   0.0160000
        k(  114) = (   0.7964940   0.3982470   0.5973705), wk =   0.0160000
        k(  115) = (   0.7964940   0.3982470   0.7964940), wk =   0.0160000
        k(  116) = (   0.7964940   0.5973705   0.0000000), wk =   0.0160000
        k(  117) = (   0.7964940   0.5973705   0.1991235), wk =   0.0160000
        k(  118) = (   0.7964940   0.5973705   0.3982470), wk =   0.0160000
        k(  119) = (   0.7964940   0.5973705   0.5973705), wk =   0.0160000
        k(  120) = (   0.7964940   0.5973705   0.7964940), wk =   0.0160000
        k(  121) = (   0.7964940   0.7964940   0.0000000), wk =   0.0160000
        k(  122) = (   0.7964940   0.7964940   0.1991235), wk =   0.0160000
        k(  123) = (   0.7964940   0.7964940   0.3982470), wk =   0.0160000
        k(  124) = (   0.7964940   0.7964940   0.5973705), wk =   0.0160000
        k(  125) = (   0.7964940   0.7964940   0.7964940), wk =   0.0160000

                       cryst. coord.
        k(    1) = (   0.0000000   0.0000000   0.0000000), wk =   0.0160000
        k(    2) = (   0.0000000   0.0000000   0.2000000), wk =   0.0160000
        k(    3) = (   0.0000000   0.0000000   0.4000000), wk =   0.0160000
        k(    4) = (   0.0000000   0.0000000   0.6000000), wk =   0.0160000
        k(    5) = (   0.0000000   0.0000000   0.8000000), wk =   0.0160000
        k(    6) = (   0.0000000   0.2000000   0.0000000), wk =   0.0160000
        k(    7) = (   0.0000000   0.2000000   0.2000000), wk =   0.0160000
        k(    8) = (   0.0000000   0.2000000   0.4000000), wk =   0.0160000
        k(    9) = (   0.0000000   0.2000000   0.6000000), wk =   0.0160000
        k(   10) = (   0.0000000   0.2000000   0.8000000), wk =   0.0160000
        k(   11) = (   0.0000000   0.4000000   0.0000000), wk =   0.0160000
        k(   12) = (   0.0000000   0.4000000   0.2000000), wk =   0.0160000
        k(   13) = (   0.0000000   0.4000000   0.4000000), wk =   0.0160000
        k(   14) = (   0.0000000   0.4000000   0.6000000), wk =   0.0160000
        k(   15) = (   0.0000000   0.4000000   0.8000000), wk =   0.0160000
        k(   16) = (   0.0000000   0.6000000   0.0000000), wk =   0.0160000
        k(   17) = (   0.0000000   0.6000000   0.2000000), wk =   0.0160000
        k(   18) = (   0.0000000   0.6000000   0.4000000), wk =   0.0160000
        k(   19) = (   0.0000000   0.6000000   0.6000000), wk =   0.0160000
        k(   20) = (   0.0000000   0.6000000   0.8000000), wk =   0.0160000
        k(   21) = (   0.0000000   0.8000000   0.0000000), wk =   0.0160000
        k(   22) = (   0.0000000   0.8000000   0.2000000), wk =   0.0160000
        k(   23) = (   0.0000000   0.8000000   0.4000000), wk =   0.0160000
        k(   24) = (   0.0000000   0.8000000   0.6000000), wk =   0.0160000
        k(   25) = (   0.0000000   0.8000000   0.8000000), wk =   0.0160000
        k(   26) = (   0.2000000   0.0000000   0.0000000), wk =   0.0160000
        k(   27) = (   0.2000000   0.0000000   0.2000000), wk =   0.0160000
        k(   28) = (   0.2000000   0.0000000   0.4000000), wk =   0.0160000
        k(   29) = (   0.2000000   0.0000000   0.6000000), wk =   0.0160000
        k(   30) = (   0.2000000   0.0000000   0.8000000), wk =   0.0160000
        k(   31) = (   0.2000000   0.2000000   0.0000000), wk =   0.0160000
        k(   32) = (   0.2000000   0.2000000   0.2000000), wk =   0.0160000
        k(   33) = (   0.2000000   0.2000000   0.4000000), wk =   0.0160000
        k(   34) = (   0.2000000   0.2000000   0.6000000), wk =   0.0160000
        k(   35) = (   0.2000000   0.2000000   0.8000000), wk =   0.0160000
        k(   36) = (   0.2000000   0.4000000   0.0000000), wk =   0.0160000
        k(   37) = (   0.2000000   0.4000000   0.2000000), wk =   0.0160000
        k(   38) = (   0.2000000   0.4000000   0.4000000), wk =   0.0160000
        k(   39) = (   0.2000000   0.4000000   0.6000000), wk =   0.0160000
        k(   40) = (   0.2000000   0.4000000   0.8000000), wk =   0.0160000
        k(   41) = (   0.2000000   0.6000000   0.0000000), wk =   0.0160000
        k(   42) = (   0.2000000   0.6000000   0.2000000), wk =   0.0160000
        k(   43) = (   0.2000000   0.6000000   0.4000000), wk =   0.0160000
        k(   44) = (   0.2000000   0.6000000   0.6000000), wk =   0.0160000
        k(   45) = (   0.2000000   0.6000000   0.8000000), wk =   0.0160000
        k(   46) = (   0.2000000   0.8000000   0.0000000), wk =   0.0160000
        k(   47) = (   0.2000000   0.8000000   0.2000000), wk =   0.0160000
        k(   48) = (   0.2000000   0.8000000   0.4000000), wk =   0.0160000
        k(   49) = (   0.2000000   0.8000000   0.6000000), wk =   0.0160000
        k(   50) = (   0.2000000   0.8000000   0.8000000), wk =   0.0160000
        k(   51) = (   0.4000000   0.0000000   0.0000000), wk =   0.0160000
        k(   52) = (   0.4000000   0.0000000   0.2000000), wk =   0.0160000
        k(   53) = (   0.4000000   0.0000000   0.4000000), wk =   0.0160000
        k(   54) = (   0.4000000   0.0000000   0.6000000), wk =   0.0160000
        k(   55) = (   0.4000000   0.0000000   0.8000000), wk =   0.0160000
        k(   56) = (   0.4000000   0.2000000   0.0000000), wk =   0.0160000
        k(   57) = (   0.4000000   0.2000000   0.2000000), wk =   0.0160000
        k(   58) = (   0.4000000   0.2000000   0.4000000), wk =   0.0160000
        k(   59) = (   0.4000000   0.2000000   0.6000000), wk =   0.0160000
        k(   60) = (   0.4000000   0.2000000   0.8000000), wk =   0.0160000
        k(   61) = (   0.4000000   0.4000000   0.0000000), wk =   0.0160000
        k(   62) = (   0.4000000   0.4000000   0.2000000), wk =   0.0160000
        k(   63) = (   0.4000000   0.4000000   0.4000000), wk =   0.0160000
        k(   64) = (   0.4000000   0.4000000   0.6000000), wk =   0.0160000
        k(   65) = (   0.4000000   0.4000000   0.8000000), wk =   0.0160000
        k(   66) = (   0.4000000   0.6000000   0.0000000), wk =   0.0160000
        k(   67) = (   0.4000000   0.6000000   0.2000000), wk =   0.0160000
        k(   68) = (   0.4000000   0.6000000   0.4000000), wk =   0.0160000
        k(   69) = (   0.4000000   0.6000000   0.6000000), wk =   0.0160000
        k(   70) = (   0.4000000   0.6000000   0.8000000), wk =   0.0160000
        k(   71) = (   0.4000000   0.8000000   0.0000000), wk =   0.0160000
        k(   72) = (   0.4000000   0.8000000   0.2000000), wk =   0.0160000
        k(   73) = (   0.4000000   0.8000000   0.4000000), wk =   0.0160000
        k(   74) = (   0.4000000   0.8000000   0.6000000), wk =   0.0160000
        k(   75) = (   0.4000000   0.8000000   0.8000000), wk =   0.0160000
        k(   76) = (   0.6000000   0.0000000   0.0000000), wk =   0.0160000
        k(   77) = (   0.6000000   0.0000000   0.2000000), wk =   0.0160000
        k(   78) = (   0.6000000   0.0000000   0.4000000), wk =   0.0160000
        k(   79) = (   0.6000000   0.0000000   0.6000000), wk =   0.0160000
        k(   80) = (   0.6000000   0.0000000   0.8000000), wk =   0.0160000
        k(   81) = (   0.6000000   0.2000000   0.0000000), wk =   0.0160000
        k(   82) = (   0.6000000   0.2000000   0.2000000), wk =   0.0160000
        k(   83) = (   0.6000000   0.2000000   0.4000000), wk =   0.0160000
        k(   84) = (   0.6000000   0.2000000   0.6000000), wk =   0.0160000
        k(   85) = (   0.6000000   0.2000000   0.8000000), wk =   0.0160000
        k(   86) = (   0.6000000   0.4000000   0.0000000), wk =   0.0160000
        k(   87) = (   0.6000000   0.4000000   0.2000000), wk =   0.0160000
        k(   88) = (   0.6000000   0.4000000   0.4000000), wk =   0.0160000
        k(   89) = (   0.6000000   0.4000000   0.6000000), wk =   0.0160000
        k(   90) = (   0.6000000   0.4000000   0.8000000), wk =   0.0160000
        k(   91) = (   0.6000000   0.6000000   0.0000000), wk =   0.0160000
        k(   92) = (   0.6000000   0.6000000   0.2000000), wk =   0.0160000
        k(   93) = (   0.6000000   0.6000000   0.4000000), wk =   0.0160000
        k(   94) = (   0.6000000   0.6000000   0.6000000), wk =   0.0160000
        k(   95) = (   0.6000000   0.6000000   0.8000000), wk =   0.0160000
        k(   96) = (   0.6000000   0.8000000   0.0000000), wk =   0.0160000
        k(   97) = (   0.6000000   0.8000000   0.2000000), wk =   0.0160000
        k(   98) = (   0.6000000   0.8000000   0.4000000), wk =   0.0160000
        k(   99) = (   0.6000000   0.8000000   0.6000000), wk =   0.0160000
        k(  100) = (   0.6000000   0.8000000   0.8000000), wk =   0.0160000
        k(  101) = (   0.8000000   0.0000000   0.0000000), wk =   0.0160000
        k(  102) = (   0.8000000   0.0000000   0.2000000), wk =   0.0160000
        k(  103) = (   0.8000000   0.0000000   0.4000000), wk =   0.0160000
        k(  104) = (   0.8000000   0.0000000   0.6000000), wk =   0.0160000
        k(  105) = (   0.8000000   0.0000000   0.8000000), wk =   0.0160000
        k(  106) = (   0.8000000   0.2000000   0.0000000), wk =   0.0160000
        k(  107) = (   0.8000000   0.2000000   0.2000000), wk =   0.0160000
        k(  108) = (   0.8000000   0.2000000   0.4000000), wk =   0.0160000
        k(  109) = (   0.8000000   0.2000000   0.6000000), wk =   0.0160000
        k(  110) = (   0.8000000   0.2000000   0.8000000), wk =   0.0160000
        k(  111) = (   0.8000000   0.4000000   0.0000000), wk =   0.0160000
        k(  112) = (   0.8000000   0.4000000   0.2000000), wk =   0.0160000
        k(  113) = (   0.8000000   0.4000000   0.4000000), wk =   0.0160000
        k(  114) = (   0.8000000   0.4000000   0.6000000), wk =   0.0160000
        k(  115) = (   0.8000000   0.4000000   0.8000000), wk =   0.0160000
        k(  116) = (   0.8000000   0.6000000   0.0000000), wk =   0.0160000
        k(  117) = (   0.8000000   0.6000000   0.2000000), wk =   0.0160000
        k(  118) = (   0.8000000   0.6000000   0.4000000), wk =   0.0160000
        k(  119) = (   0.8000000   0.6000000   0.6000000), wk =   0.0160000
        k(  120) = (   0.8000000   0.6000000   0.8000000), wk =   0.0160000
        k(  121) = (   0.8000000   0.8000000   0.0000000), wk =   0.0160000
        k(  122) = (   0.8000000   0.8000000   0.2000000), wk =   0.0160000
        k(  123) = (   0.8000000   0.8000000   0.4000000), wk =   0.0160000
        k(  124) = (   0.8000000   0.8000000   0.6000000), wk =   0.0160000
        k(  125) = (   0.8000000   0.8000000   0.8000000), wk =   0.0160000

     Dense  grid:   126563 G-vectors     FFT dimensions: (  64,  64,  64)

     Smooth grid:    24303 G-vectors     FFT dimensions: (  36,  36,  36)

     Dynamical RAM for                 wfc:       0.29 MB

     Dynamical RAM for     wfc (w. buffer):       0.29 MB

     Dynamical RAM for           str. fact:       1.45 MB

     Dynamical RAM for           local pot:       0.00 MB

     Dynamical RAM for          nlocal pot:       0.87 MB

     Dynamical RAM for                qrad:       6.46 MB

     Dynamical RAM for          rho,v,vnew:       2.95 MB

     Dynamical RAM for           G-vectors:       1.86 MB

     Dynamical RAM for          h,s,v(r/c):       0.11 MB

     Dynamical RAM for          <psi|beta>:       0.03 MB

     Dynamical RAM for                 psi:       0.58 MB

     Dynamical RAM for                hpsi:       0.58 MB

     Dynamical RAM for                spsi:       0.58 MB

     Dynamical RAM for      wfcinit/wfcrot:       0.84 MB

     Dynamical RAM for           addusdens:      91.25 MB

     Estimated static dynamical RAM per process >      18.30 MB

     Estimated max dynamical RAM per process >     109.55 MB

     Estimated total dynamical RAM >     438.21 MB

     Check: negative core charge=   -0.000002

     The potential is recalculated from file :
     ./QE_tmp/svo.save/charge-density


     negative rho (up, down):  6.712E-02 0.000E+00
     Starting wfcs are   35 randomized atomic wfcs

     Band Structure Calculation
     Davidson diagonalization with overlap

     Computing kpt #:     1  of   125
     total cpu time spent up to now is        1.4 secs

     Computing kpt #:     2  of   125
     total cpu time spent up to now is        1.6 secs

     Computing kpt #:     3  of   125
     total cpu time spent up to now is        1.9 secs

     Computing kpt #:     4  of   125
     total cpu time spent up to now is        2.9 secs

     Computing kpt #:     5  of   125
     total cpu time spent up to now is        3.2 secs

     Computing kpt #:     6  of   125
     total cpu time spent up to now is        3.5 secs

     Computing kpt #:     7  of   125
     total cpu time spent up to now is        3.7 secs

     Computing kpt #:     8  of   125
     total cpu time spent up to now is        4.8 secs

     Computing kpt #:     9  of   125
     total cpu time spent up to now is        5.1 secs

     Computing kpt #:    10  of   125
     total cpu time spent up to now is        5.6 secs

     Computing kpt #:    11  of   125
     total cpu time spent up to now is        6.7 secs

     Computing kpt #:    12  of   125
     total cpu time spent up to now is        7.0 secs

     Computing kpt #:    13  of   125
     total cpu time spent up to now is        8.0 secs

     Computing kpt #:    14  of   125
     total cpu time spent up to now is        9.1 secs

     Computing kpt #:    15  of   125
     total cpu time spent up to now is        9.3 secs

     Computing kpt #:    16  of   125
     total cpu time spent up to now is        9.6 secs

     Computing kpt #:    17  of   125
     total cpu time spent up to now is        9.8 secs

     Computing kpt #:    18  of   125
     total cpu time spent up to now is       10.1 secs

     Computing kpt #:    19  of   125
     total cpu time spent up to now is       11.1 secs

     Computing kpt #:    20  of   125
     total cpu time spent up to now is       12.1 secs

     Computing kpt #:    21  of   125
     total cpu time spent up to now is       13.2 secs

     Computing kpt #:    22  of   125
     total cpu time spent up to now is       13.5 secs

     Computing kpt #:    23  of   125
     total cpu time spent up to now is       14.6 secs

     Computing kpt #:    24  of   125
     total cpu time spent up to now is       15.8 secs

     Computing kpt #:    25  of   125
     total cpu time spent up to now is       17.0 secs

     Computing kpt #:    26  of   125
     total cpu time spent up to now is       17.3 secs

     Computing kpt #:    27  of   125
     total cpu time spent up to now is       17.6 secs

     Computing kpt #:    28  of   125
     total cpu time spent up to now is       17.8 secs

     Computing kpt #:    29  of   125
     total cpu time spent up to now is       18.1 secs

     Computing kpt #:    30  of   125
     total cpu time spent up to now is       18.3 secs

     Computing kpt #:    31  of   125
     total cpu time spent up to now is       18.6 secs

     Computing kpt #:    32  of   125
     total cpu time spent up to now is       19.7 secs

     Computing kpt #:    33  of   125
     total cpu time spent up to now is       20.9 secs

     Computing kpt #:    34  of   125
     total cpu time spent up to now is       22.1 secs

     Computing kpt #:    35  of   125
     total cpu time spent up to now is       22.4 secs

     Computing kpt #:    36  of   125
     total cpu time spent up to now is       23.5 secs

     Computing kpt #:    37  of   125
     total cpu time spent up to now is       24.7 secs

     Computing kpt #:    38  of   125
     total cpu time spent up to now is       25.9 secs

     Computing kpt #:    39  of   125
     total cpu time spent up to now is       27.0 secs

     Computing kpt #:    40  of   125
     total cpu time spent up to now is       28.1 secs

     Computing kpt #:    41  of   125
     total cpu time spent up to now is       29.3 secs

     Computing kpt #:    42  of   125
     total cpu time spent up to now is       29.5 secs

     Computing kpt #:    43  of   125
     total cpu time spent up to now is       29.8 secs

     Computing kpt #:    44  of   125
     total cpu time spent up to now is       30.9 secs

     Computing kpt #:    45  of   125
     total cpu time spent up to now is       31.2 secs

     Computing kpt #:    46  of   125
     total cpu time spent up to now is       31.4 secs

     Computing kpt #:    47  of   125
     total cpu time spent up to now is       31.7 secs

     Computing kpt #:    48  of   125
     total cpu time spent up to now is       31.9 secs

     Computing kpt #:    49  of   125
     total cpu time spent up to now is       32.2 secs

     Computing kpt #:    50  of   125
     total cpu time spent up to now is       33.2 secs

     Computing kpt #:    51  of   125
     total cpu time spent up to now is       33.5 secs

     Computing kpt #:    52  of   125
     total cpu time spent up to now is       33.7 secs

     Computing kpt #:    53  of   125
     total cpu time spent up to now is       34.8 secs

     Computing kpt #:    54  of   125
     total cpu time spent up to now is       35.9 secs

     Computing kpt #:    55  of   125
     total cpu time spent up to now is       37.0 secs

     Computing kpt #:    56  of   125
     total cpu time spent up to now is       38.1 secs

     Computing kpt #:    57  of   125
     total cpu time spent up to now is       39.2 secs

     Computing kpt #:    58  of   125
     total cpu time spent up to now is       40.4 secs

     Computing kpt #:    59  of   125
     total cpu time spent up to now is       41.5 secs

     Computing kpt #:    60  of   125
     total cpu time spent up to now is       42.6 secs

     Computing kpt #:    61  of   125
     total cpu time spent up to now is       43.8 secs

     Computing kpt #:    62  of   125
     total cpu time spent up to now is       44.9 secs

     Computing kpt #:    63  of   125
     total cpu time spent up to now is       46.2 secs

     Computing kpt #:    64  of   125
     total cpu time spent up to now is       47.5 secs

     Computing kpt #:    65  of   125
     total cpu time spent up to now is       47.8 secs

     Computing kpt #:    66  of   125
     total cpu time spent up to now is       48.9 secs

     Computing kpt #:    67  of   125
     total cpu time spent up to now is       50.1 secs

     Computing kpt #:    68  of   125
     total cpu time spent up to now is       51.3 secs

     Computing kpt #:    69  of   125
     total cpu time spent up to now is       52.6 secs

     Computing kpt #:    70  of   125
     total cpu time spent up to now is       53.7 secs

     Computing kpt #:    71  of   125
     total cpu time spent up to now is       53.9 secs

     Computing kpt #:    72  of   125
     total cpu time spent up to now is       54.2 secs

     Computing kpt #:    73  of   125
     total cpu time spent up to now is       54.5 secs

     Computing kpt #:    74  of   125
     total cpu time spent up to now is       54.7 secs

     Computing kpt #:    75  of   125
     total cpu time spent up to now is       55.8 secs

     Computing kpt #:    76  of   125
     total cpu time spent up to now is       56.9 secs

     Computing kpt #:    77  of   125
     total cpu time spent up to now is       58.0 secs

     Computing kpt #:    78  of   125
     total cpu time spent up to now is       59.0 secs

     Computing kpt #:    79  of   125
     total cpu time spent up to now is       60.1 secs

     Computing kpt #:    80  of   125
     total cpu time spent up to now is       61.2 secs

     Computing kpt #:    81  of   125
     total cpu time spent up to now is       62.3 secs

     Computing kpt #:    82  of   125
     total cpu time spent up to now is       62.6 secs

     Computing kpt #:    83  of   125
     total cpu time spent up to now is       63.7 secs

     Computing kpt #:    84  of   125
     total cpu time spent up to now is       64.0 secs

     Computing kpt #:    85  of   125
     total cpu time spent up to now is       64.2 secs

     Computing kpt #:    86  of   125
     total cpu time spent up to now is       64.5 secs

     Computing kpt #:    87  of   125
     total cpu time spent up to now is       64.7 secs

     Computing kpt #:    88  of   125
     total cpu time spent up to now is       65.0 secs

     Computing kpt #:    89  of   125
     total cpu time spent up to now is       66.1 secs

     Computing kpt #:    90  of   125
     total cpu time spent up to now is       67.2 secs

     Computing kpt #:    91  of   125
     total cpu time spent up to now is       67.4 secs

     Computing kpt #:    92  of   125
     total cpu time spent up to now is       67.7 secs

     Computing kpt #:    93  of   125
     total cpu time spent up to now is       68.9 secs

     Computing kpt #:    94  of   125
     total cpu time spent up to now is       69.2 secs

     Computing kpt #:    95  of   125
     total cpu time spent up to now is       69.4 secs

     Computing kpt #:    96  of   125
     total cpu time spent up to now is       69.7 secs

     Computing kpt #:    97  of   125
     total cpu time spent up to now is       69.9 secs

     Computing kpt #:    98  of   125
     total cpu time spent up to now is       70.2 secs

     Computing kpt #:    99  of   125
     total cpu time spent up to now is       71.3 secs

     Computing kpt #:   100  of   125
     total cpu time spent up to now is       71.5 secs

     Computing kpt #:   101  of   125
     total cpu time spent up to now is       71.8 secs

     Computing kpt #:   102  of   125
     total cpu time spent up to now is       72.1 secs

     Computing kpt #:   103  of   125
     total cpu time spent up to now is       73.1 secs

     Computing kpt #:   104  of   125
     total cpu time spent up to now is       73.4 secs

     Computing kpt #:   105  of   125
     total cpu time spent up to now is       73.7 secs

     Computing kpt #:   106  of   125
     total cpu time spent up to now is       73.9 secs

     Computing kpt #:   107  of   125
     total cpu time spent up to now is       74.2 secs

     Computing kpt #:   108  of   125
     total cpu time spent up to now is       74.5 secs

     Computing kpt #:   109  of   125
     total cpu time spent up to now is       74.7 secs

     Computing kpt #:   110  of   125
     total cpu time spent up to now is       75.0 secs

     Computing kpt #:   111  of   125
     total cpu time spent up to now is       76.0 secs

     Computing kpt #:   112  of   125
     total cpu time spent up to now is       77.1 secs

     Computing kpt #:   113  of   125
     total cpu time spent up to now is       77.4 secs

     Computing kpt #:   114  of   125
     total cpu time spent up to now is       77.6 secs

     Computing kpt #:   115  of   125
     total cpu time spent up to now is       77.9 secs

     Computing kpt #:   116  of   125
     total cpu time spent up to now is       78.2 secs

     Computing kpt #:   117  of   125
     total cpu time spent up to now is       78.4 secs

     Computing kpt #:   118  of   125
     total cpu time spent up to now is       78.7 secs

     Computing kpt #:   119  of   125
     total cpu time spent up to now is       79.8 secs

     Computing kpt #:   120  of   125
     total cpu time spent up to now is       80.1 secs

     Computing kpt #:   121  of   125
     total cpu time spent up to now is       80.3 secs

     Computing kpt #:   122  of   125
     total cpu time spent up to now is       80.6 secs

     Computing kpt #:   123  of   125
     total cpu time spent up to now is       81.7 secs

     Computing kpt #:   124  of   125
     total cpu time spent up to now is       82.8 secs

     Computing kpt #:   125  of   125
     total cpu time spent up to now is       83.8 secs

     ethr =  2.44E-11,  avg # of iterations = 27.4

     total cpu time spent up to now is       83.8 secs

     End of band structure calculation

          k = 0.0000 0.0000 0.0000 (  2969 PWs)   bands (ev):

   -53.5060 -27.3390 -27.3390 -27.3390 -22.1583  -7.2769  -6.1053  -6.1053
    -4.1629  -4.1629  -4.1629   7.2138   7.2138   7.2138   9.1526   9.1526
     9.1526   9.9711   9.9711   9.9711  11.4286  11.4286  11.4286  13.6020
    13.6020

     occupation numbers 
     1.0000   1.0000   1.0000   1.0000   1.0000   1.0000   1.0000   1.0000
     1.0000   1.0000   1.0000   1.0000   1.0000   1.0000   1.0000   1.0000
     1.0000   1.0000   1.0000   1.0000   1.0000   1.0000   1.0000  -0.0000
    -0.0000

          k = 0.0000 0.0000 0.1991 (  3022 PWs)   bands (ev):

   -53.5059 -27.3498 -27.3384 -27.3384 -22.1480  -7.2979  -6.1378  -6.0905
    -4.1426  -4.1426  -3.9221   6.7019   7.1988   7.1988   8.6244   8.6244
     8.8356   8.9745   9.7439   9.7439  11.4676  12.2321  12.2321  13.6082
    14.6280

     occupation numbers 
     1.0000   1.0000   1.0000   1.0000   1.0000   1.0000   1.0000   1.0000
     1.0000   1.0000   1.0000   1.0000   1.0000   1.0000   1.0000   1.0000
     1.0000   1.0000   1.0000   1.0000   1.0000   0.8269   0.8269  -0.0000
    -0.0000

          k = 0.0000 0.0000 0.3982 (  3042 PWs)   bands (ev):

   -53.5058 -27.3672 -27.3375 -27.3375 -22.1312  -7.4231  -6.0663  -6.0053
    -4.1092  -4.1092  -3.6086   5.8713   7.1998   7.1998   7.9644   7.9644
     7.9743   8.3962   9.5609   9.5609  11.5323  13.1625  13.1625  13.6149
    15.7098

     occupation numbers 
     1.0000   1.0000   1.0000   1.0000   1.0000   1.0000   1.0000   1.0000
     1.0000   1.0000   1.0000   1.0000   1.0000   1.0000   1.0000   1.0000
     1.0000   1.0000   1.0000   1.0000   1.0001  -0.0001  -0.0001  -0.0000
    -0.0000

          k = 0.0000 0.0000 0.5974 (  3042 PWs)   bands (ev):

   -53.5058 -27.3672 -27.3375 -27.3375 -22.1312  -7.4231  -6.0663  -6.0053
    -4.1092  -4.1092  -3.6086   5.8713   7.1998   7.1998   7.9644   7.9644
     7.9743   8.3962   9.5609   9.5609  11.5323  13.1625  13.1625  13.6149
    15.7098

     occupation numbers 
     1.0000   1.0000   1.0000   1.0000   1.0000   1.0000   1.0000   1.0000
     1.0000   1.0000   1.0000   1.0000   1.0000   1.0000   1.0000   1.0000
     1.0000   1.0000   1.0000   1.0000   1.0001  -0.0001  -0.0001  -0.0000
    -0.0000

          k = 0.0000 0.0000 0.7965 (  3022 PWs)   bands (ev):

   -53.5059 -27.3498 -27.3384 -27.3384 -22.1480  -7.2979  -6.1378  -6.0905
    -4.1426  -4.1426  -3.9221   6.7019   7.1988   7.1988   8.6244   8.6244
     8.8356   8.9745   9.7439   9.7439  11.4676  12.2321  12.2321  13.6082
    14.6280

     occupation numbers 
     1.0000   1.0000   1.0000   1.0000   1.0000   1.0000   1.0000   1.0000
     1.0000   1.0000   1.0000   1.0000   1.0000   1.0000   1.0000   1.0000
     1.0000   1.0000   1.0000   1.0000   1.0000   0.8269   0.8269  -0.0000
    -0.0000

          k = 0.0000 0.1991 0.0000 (  3022 PWs)   bands (ev):

   -53.5059 -27.3498 -27.3384 -27.3384 -22.1480  -7.2979  -6.1378  -6.0905
    -4.1426  -4.1426  -3.9221   6.7019   7.1988   7.1988   8.6244   8.6244
     8.8356   8.9745   9.7439   9.7439  11.4676  12.2321  12.2321  13.6082
    14.6280

     occupation numbers 
     1.0000   1.0000   1.0000   1.0000   1.0000   1.0000   1.0000   1.0000
     1.0000   1.0000   1.0000   1.0000   1.0000   1.0000   1.0000   1.0000
     1.0000   1.0000   1.0000   1.0000   1.0000   0.8269   0.8269  -0.0000
    -0.0000

          k = 0.0000 0.1991 0.1991 (  3023 PWs)   bands (ev):

   -53.5058 -27.3494 -27.3488 -27.3378 -22.1387  -7.2320  -6.2218  -6.0704
    -4.1213  -4.0162  -3.8763   6.4751   6.8947   7.1968   7.6784   8.3061
     8.7980   9.0819   9.3312   9.4915  12.1757  12.3067  12.5167  14.1010
    15.2331

     occupation numbers 
     1.0000   1.0000   1.0000   1.0000   1.0000   1.0000   1.0000   1.0000
     1.0000   1.0000   1.0000   1.0000   1.0000   1.0000   1.0000   1.0000
     1.0000   1.0000   1.0000   1.0000   0.9344   0.6269   0.0713  -0.0000
    -0.0000

          k = 0.0000 0.1991 0.3982 (  3028 PWs)   bands (ev):

   -53.5056 -27.3663 -27.3480 -27.3369 -22.1235  -7.2279  -6.1781  -6.0442
    -4.0866  -3.9794  -3.6882   5.8254   6.5975   6.8861   7.2258   7.7747
     8.3898   8.9770   9.0184   9.4468  12.2609  13.1564  13.2001  14.2281
    16.2808

     occupation numbers 
     1.0000   1.0000   1.0000   1.0000   1.0000   1.0000   1.0000   1.0000
     1.0000   1.0000   1.0000   1.0000   1.0000   1.0000   1.0000   1.0000
     1.0000   1.0000   1.0000   1.0000   0.7561  -0.0001  -0.0000  -0.0000
    -0.0000

          k = 0.0000 0.1991 0.5974 (  3028 PWs)   bands (ev):

   -53.5056 -27.3663 -27.3480 -27.3369 -22.1235  -7.2279  -6.1781  -6.0442
    -4.0866  -3.9794  -3.6882   5.8254   6.5975   6.8861   7.2258   7.7747
     8.3898   8.9770   9.0184   9.4468  12.2609  13.1564  13.2001  14.2281
    16.2808

     occupation numbers 
     1.0000   1.0000   1.0000   1.0000   1.0000   1.0000   1.0000   1.0000
     1.0000   1.0000   1.0000   1.0000   1.0000   1.0000   1.0000   1.0000
     1.0000   1.0000   1.0000   1.0000   0.7561  -0.0001  -0.0000  -0.0000
    -0.0000

          k = 0.0000 0.1991 0.7965 (  3023 PWs)   bands (ev):

   -53.5058 -27.3494 -27.3488 -27.3378 -22.1387  -7.2320  -6.2218  -6.0704
    -4.1213  -4.0162  -3.8763   6.4751   6.8947   7.1968   7.6784   8.3061
     8.7980   9.0819   9.3312   9.4915  12.1757  12.3067  12.5167  14.1010
    15.2331

     occupation numbers 
     1.0000   1.0000   1.0000   1.0000   1.0000   1.0000   1.0000   1.0000
     1.0000   1.0000   1.0000   1.0000   1.0000   1.0000   1.0000   1.0000
     1.0000   1.0000   1.0000   1.0000   0.9344   0.6269   0.0713  -0.0000
    -0.0000

          k = 0.0000 0.3982 0.0000 (  3042 PWs)   bands (ev):

   -53.5058 -27.3672 -27.3375 -27.3375 -22.1312  -7.4231  -6.0663  -6.0053
    -4.1092  -4.1092  -3.6086   5.8713   7.1998   7.1998   7.9644   7.9644
     7.9743   8.3962   9.5609   9.5609  11.5323  13.1625  13.1625  13.6149
    15.7098

     occupation numbers 
     1.0000   1.0000   1.0000   1.0000   1.0000   1.0000   1.0000   1.0000
     1.0000   1.0000   1.0000   1.0000   1.0000   1.0000   1.0000   1.0000
     1.0000   1.0000   1.0000   1.0000   1.0001  -0.0001  -0.0001  -0.0000
    -0.0000

          k = 0.0000 0.3982 0.1991 (  3028 PWs)   bands (ev):

   -53.5056 -27.3663 -27.3480 -27.3369 -22.1235  -7.2279  -6.1781  -6.0442
    -4.0866  -3.9794  -3.6882   5.8254   6.5975   6.8861   7.2258   7.7747
     8.3898   8.9770   9.0184   9.4468  12.2609  13.1564  13.2001  14.2281
    16.2808

     occupation numbers 
     1.0000   1.0000   1.0000   1.0000   1.0000   1.0000   1.0000   1.0000
     1.0000   1.0000   1.0000   1.0000   1.0000   1.0000   1.0000   1.0000
     1.0000   1.0000   1.0000   1.0000   0.7561  -0.0001  -0.0000  -0.0000
    -0.0000

          k = 0.0000 0.3982 0.3982 (  3060 PWs)   bands (ev):

   -53.5055 -27.3650 -27.3648 -27.3360 -22.1110  -6.8239  -6.3759  -6.1525
    -4.0493  -3.8087  -3.7762   5.6092   5.8291   6.0745   7.2957   7.4653
     8.4494   8.6463   8.7986  10.1165  13.1289  13.1679  13.4925  14.5526
    17.3583

     occupation numbers 
     1.0000   1.0000   1.0000   1.0000   1.0000   1.0000   1.0000   1.0000
     1.0000   1.0000   1.0000   1.0000   1.0000   1.0000   1.0000   1.0000
     1.0000   1.0000   1.0000   1.0000  -0.0002  -0.0001  -0.0000  -0.0000
    -0.0000

          k = 0.0000 0.3982 0.5974 (  3060 PWs)   bands (ev):

   -53.5055 -27.3650 -27.3648 -27.3360 -22.1110  -6.8239  -6.3759  -6.1525
    -4.0493  -3.8087  -3.7762   5.6092   5.8291   6.0745   7.2957   7.4653
     8.4494   8.6463   8.7986  10.1165  13.1289  13.1679  13.4925  14.5526
    17.3583

     occupation numbers 
     1.0000   1.0000   1.0000   1.0000   1.0000   1.0000   1.0000   1.0000
     1.0000   1.0000   1.0000   1.0000   1.0000   1.0000   1.0000   1.0000
     1.0000   1.0000   1.0000   1.0000  -0.0002  -0.0001  -0.0000  -0.0000
    -0.0000

          k = 0.0000 0.3982 0.7965 (  3028 PWs)   bands (ev):

   -53.5056 -27.3663 -27.3480 -27.3369 -22.1235  -7.2279  -6.1781  -6.0442
    -4.0866  -3.9794  -3.6882   5.8254   6.5975   6.8861   7.2258   7.7747
     8.3898   8.9770   9.0184   9.4468  12.2609  13.1564  13.2001  14.2281
    16.2808

     occupation numbers 
     1.0000   1.0000   1.0000   1.0000   1.0000   1.0000   1.0000   1.0000
     1.0000   1.0000   1.0000   1.0000   1.0000   1.0000   1.0000   1.0000
     1.0000   1.0000   1.0000   1.0000   0.7561  -0.0001  -0.0000  -0.0000
    -0.0000

          k = 0.0000 0.5974 0.0000 (  3042 PWs)   bands (ev):

   -53.5058 -27.3672 -27.3375 -27.3375 -22.1312  -7.4231  -6.0663  -6.0053
    -4.1092  -4.1092  -3.6086   5.8713   7.1998   7.1998   7.9644   7.9644
     7.9743   8.3962   9.5609   9.5609  11.5323  13.1625  13.1625  13.6149
    15.7098

     occupation numbers 
     1.0000   1.0000   1.0000   1.0000   1.0000   1.0000   1.0000   1.0000
     1.0000   1.0000   1.0000   1.0000   1.0000   1.0000   1.0000   1.0000
     1.0000   1.0000   1.0000   1.0000   1.0001  -0.0001  -0.0001  -0.0000
    -0.0000

          k = 0.0000 0.5974 0.1991 (  3028 PWs)   bands (ev):

   -53.5056 -27.3663 -27.3480 -27.3369 -22.1235  -7.2279  -6.1781  -6.0442
    -4.0866  -3.9794  -3.6882   5.8254   6.5975   6.8861   7.2258   7.7747
     8.3898   8.9770   9.0184   9.4468  12.2609  13.1564  13.2001  14.2281
    16.2808

     occupation numbers 
     1.0000   1.0000   1.0000   1.0000   1.0000   1.0000   1.0000   1.0000
     1.0000   1.0000   1.0000   1.0000   1.0000   1.0000   1.0000   1.0000
     1.0000   1.0000   1.0000   1.0000   0.7561  -0.0001  -0.0000  -0.0000
    -0.0000

          k = 0.0000 0.5974 0.3982 (  3060 PWs)   bands (ev):

   -53.5055 -27.3650 -27.3648 -27.3360 -22.1110  -6.8239  -6.3759  -6.1525
    -4.0493  -3.8087  -3.7762   5.6092   5.8291   6.0745   7.2957   7.4653
     8.4494   8.6463   8.7986  10.1165  13.1289  13.1679  13.4925  14.5526
    17.3583

     occupation numbers 
     1.0000   1.0000   1.0000   1.0000   1.0000   1.0000   1.0000   1.0000
     1.0000   1.0000   1.0000   1.0000   1.0000   1.0000   1.0000   1.0000
     1.0000   1.0000   1.0000   1.0000  -0.0002  -0.0001  -0.0000  -0.0000
    -0.0000

          k = 0.0000 0.5974 0.5974 (  3060 PWs)   bands (ev):

   -53.5055 -27.3650 -27.3648 -27.3360 -22.1110  -6.8239  -6.3759  -6.1525
    -4.0493  -3.8087  -3.7762   5.6092   5.8291   6.0745   7.2957   7.4653
     8.4494   8.6463   8.7986  10.1165  13.1289  13.1679  13.4925  14.5526
    17.3583

     occupation numbers 
     1.0000   1.0000   1.0000   1.0000   1.0000   1.0000   1.0000   1.0000
     1.0000   1.0000   1.0000   1.0000   1.0000   1.0000   1.0000   1.0000
     1.0000   1.0000   1.0000   1.0000  -0.0002  -0.0001  -0.0000  -0.0000
    -0.0000

          k = 0.0000 0.5974 0.7965 (  3028 PWs)   bands (ev):

   -53.5056 -27.3663 -27.3480 -27.3369 -22.1235  -7.2279  -6.1781  -6.0442
    -4.0866  -3.9794  -3.6882   5.8254   6.5975   6.8861   7.2258   7.7747
     8.3898   8.9770   9.0184   9.4468  12.2609  13.1564  13.2001  14.2281
    16.2808

     occupation numbers 
     1.0000   1.0000   1.0000   1.0000   1.0000   1.0000   1.0000   1.0000
     1.0000   1.0000   1.0000   1.0000   1.0000   1.0000   1.0000   1.0000
     1.0000   1.0000   1.0000   1.0000   0.7561  -0.0001  -0.0000  -0.0000
    -0.0000

          k = 0.0000 0.7965 0.0000 (  3022 PWs)   bands (ev):

   -53.5059 -27.3498 -27.3384 -27.3384 -22.1480  -7.2979  -6.1378  -6.0905
    -4.1426  -4.1426  -3.9221   6.7019   7.1988   7.1988   8.6244   8.6244
     8.8356   8.9745   9.7439   9.7439  11.4676  12.2321  12.2321  13.6082
    14.6280

     occupation numbers 
     1.0000   1.0000   1.0000   1.0000   1.0000   1.0000   1.0000   1.0000
     1.0000   1.0000   1.0000   1.0000   1.0000   1.0000   1.0000   1.0000
     1.0000   1.0000   1.0000   1.0000   1.0000   0.8269   0.8269  -0.0000
    -0.0000

          k = 0.0000 0.7965 0.1991 (  3023 PWs)   bands (ev):

   -53.5058 -27.3494 -27.3488 -27.3378 -22.1387  -7.2320  -6.2218  -6.0704
    -4.1213  -4.0162  -3.8763   6.4751   6.8947   7.1968   7.6784   8.3061
     8.7980   9.0819   9.3312   9.4915  12.1757  12.3067  12.5167  14.1010
    15.2331

     occupation numbers 
     1.0000   1.0000   1.0000   1.0000   1.0000   1.0000   1.0000   1.0000
     1.0000   1.0000   1.0000   1.0000   1.0000   1.0000   1.0000   1.0000
     1.0000   1.0000   1.0000   1.0000   0.9344   0.6269   0.0713  -0.0000
    -0.0000

          k = 0.0000 0.7965 0.3982 (  3028 PWs)   bands (ev):

   -53.5056 -27.3663 -27.3480 -27.3369 -22.1235  -7.2279  -6.1781  -6.0442
    -4.0866  -3.9794  -3.6882   5.8254   6.5975   6.8861   7.2258   7.7747
     8.3898   8.9770   9.0184   9.4468  12.2609  13.1564  13.2001  14.2281
    16.2808

     occupation numbers 
     1.0000   1.0000   1.0000   1.0000   1.0000   1.0000   1.0000   1.0000
     1.0000   1.0000   1.0000   1.0000   1.0000   1.0000   1.0000   1.0000
     1.0000   1.0000   1.0000   1.0000   0.7561  -0.0001  -0.0000  -0.0000
    -0.0000

          k = 0.0000 0.7965 0.5974 (  3028 PWs)   bands (ev):

   -53.5056 -27.3663 -27.3480 -27.3369 -22.1235  -7.2279  -6.1781  -6.0442
    -4.0866  -3.9794  -3.6882   5.8254   6.5975   6.8861   7.2258   7.7747
     8.3898   8.9770   9.0184   9.4468  12.2609  13.1564  13.2001  14.2281
    16.2808

     occupation numbers 
     1.0000   1.0000   1.0000   1.0000   1.0000   1.0000   1.0000   1.0000
     1.0000   1.0000   1.0000   1.0000   1.0000   1.0000   1.0000   1.0000
     1.0000   1.0000   1.0000   1.0000   0.7561  -0.0001  -0.0000  -0.0000
    -0.0000

          k = 0.0000 0.7965 0.7965 (  3023 PWs)   bands (ev):

   -53.5058 -27.3494 -27.3488 -27.3378 -22.1387  -7.2320  -6.2218  -6.0704
    -4.1213  -4.0162  -3.8763   6.4751   6.8947   7.1968   7.6784   8.3061
     8.7980   9.0819   9.3312   9.4915  12.1757  12.3067  12.5167  14.1010
    15.2331

     occupation numbers 
     1.0000   1.0000   1.0000   1.0000   1.0000   1.0000   1.0000   1.0000
     1.0000   1.0000   1.0000   1.0000   1.0000   1.0000   1.0000   1.0000
     1.0000   1.0000   1.0000   1.0000   0.9344   0.6269   0.0713  -0.0000
    -0.0000

          k = 0.1991 0.0000 0.0000 (  3022 PWs)   bands (ev):

   -53.5059 -27.3498 -27.3384 -27.3384 -22.1480  -7.2979  -6.1378  -6.0905
    -4.1426  -4.1426  -3.9221   6.7019   7.1988   7.1988   8.6244   8.6244
     8.8356   8.9745   9.7439   9.7439  11.4676  12.2321  12.2321  13.6082
    14.6280

     occupation numbers 
     1.0000   1.0000   1.0000   1.0000   1.0000   1.0000   1.0000   1.0000
     1.0000   1.0000   1.0000   1.0000   1.0000   1.0000   1.0000   1.0000
     1.0000   1.0000   1.0000   1.0000   1.0000   0.8269   0.8269  -0.0000
    -0.0000

          k = 0.1991 0.0000 0.1991 (  3023 PWs)   bands (ev):

   -53.5058 -27.3494 -27.3488 -27.3378 -22.1387  -7.2320  -6.2218  -6.0704
    -4.1213  -4.0162  -3.8763   6.4751   6.8947   7.1968   7.6784   8.3061
     8.7980   9.0819   9.3312   9.4915  12.1757  12.3067  12.5167  14.1010
    15.2331

     occupation numbers 
     1.0000   1.0000   1.0000   1.0000   1.0000   1.0000   1.0000   1.0000
     1.0000   1.0000   1.0000   1.0000   1.0000   1.0000   1.0000   1.0000
     1.0000   1.0000   1.0000   1.0000   0.9344   0.6269   0.0713  -0.0000
    -0.0000

          k = 0.1991 0.0000 0.3982 (  3028 PWs)   bands (ev):

   -53.5056 -27.3663 -27.3480 -27.3369 -22.1235  -7.2279  -6.1781  -6.0442
    -4.0866  -3.9794  -3.6882   5.8254   6.5975   6.8861   7.2258   7.7747
     8.3898   8.9770   9.0184   9.4468  12.2609  13.1564  13.2001  14.2281
    16.2808

     occupation numbers 
     1.0000   1.0000   1.0000   1.0000   1.0000   1.0000   1.0000   1.0000
     1.0000   1.0000   1.0000   1.0000   1.0000   1.0000   1.0000   1.0000
     1.0000   1.0000   1.0000   1.0000   0.7561  -0.0001  -0.0000  -0.0000
    -0.0000

          k = 0.1991 0.0000 0.5974 (  3028 PWs)   bands (ev):

   -53.5056 -27.3663 -27.3480 -27.3369 -22.1235  -7.2279  -6.1781  -6.0442
    -4.0866  -3.9794  -3.6882   5.8254   6.5975   6.8861   7.2258   7.7747
     8.3898   8.9770   9.0184   9.4468  12.2609  13.1564  13.2001  14.2281
    16.2808

     occupation numbers 
     1.0000   1.0000   1.0000   1.0000   1.0000   1.0000   1.0000   1.0000
     1.0000   1.0000   1.0000   1.0000   1.0000   1.0000   1.0000   1.0000
     1.0000   1.0000   1.0000   1.0000   0.7561  -0.0001  -0.0000  -0.0000
    -0.0000

          k = 0.1991 0.0000 0.7965 (  3023 PWs)   bands (ev):

   -53.5058 -27.3494 -27.3488 -27.3378 -22.1387  -7.2320  -6.2218  -6.0704
    -4.1213  -4.0162  -3.8763   6.4751   6.8947   7.1968   7.6784   8.3061
     8.7980   9.0819   9.3312   9.4915  12.1757  12.3067  12.5167  14.1010
    15.2331

     occupation numbers 
     1.0000   1.0000   1.0000   1.0000   1.0000   1.0000   1.0000   1.0000
     1.0000   1.0000   1.0000   1.0000   1.0000   1.0000   1.0000   1.0000
     1.0000   1.0000   1.0000   1.0000   0.9344   0.6269   0.0713  -0.0000
    -0.0000

          k = 0.1991 0.1991 0.0000 (  3023 PWs)   bands (ev):

   -53.5058 -27.3494 -27.3488 -27.3378 -22.1387  -7.2320  -6.2218  -6.0704
    -4.1213  -4.0162  -3.8763   6.4751   6.8947   7.1968   7.6784   8.3061
     8.7980   9.0819   9.3312   9.4915  12.1757  12.3067  12.5167  14.1010
    15.2331

     occupation numbers 
     1.0000   1.0000   1.0000   1.0000   1.0000   1.0000   1.0000   1.0000
     1.0000   1.0000   1.0000   1.0000   1.0000   1.0000   1.0000   1.0000
     1.0000   1.0000   1.0000   1.0000   0.9344   0.6269   0.0713  -0.0000
    -0.0000

          k = 0.1991 0.1991 0.1991 (  3058 PWs)   bands (ev):

   -53.5057 -27.3489 -27.3483 -27.3483 -22.1300  -7.1283  -6.1574  -6.1574
    -4.0844  -4.0844  -3.7863   6.2602   6.9036   6.9036   7.6579   7.6579
     7.9490   9.3617   9.3617   9.5382  12.4952  12.6032  12.6032  15.2263
    15.2263

     occupation numbers 
     1.0000   1.0000   1.0000   1.0000   1.0000   1.0000   1.0000   1.0000
     1.0000   1.0000   1.0000   1.0000   1.0000   1.0000   1.0000   1.0000
     1.0000   1.0000   1.0000   1.0000   0.1083  -0.0174  -0.0174  -0.0000
    -0.0000

          k = 0.1991 0.1991 0.3982 (  3029 PWs)   bands (ev):

   -53.5055 -27.3655 -27.3475 -27.3473 -22.1159  -7.0362  -6.1829  -6.0422
    -4.2067  -3.9292  -3.7602   5.7919   6.4719   6.8641   6.9374   7.1011
     7.9103   9.2514   9.2918   9.5617  12.6390  13.2302  13.2615  15.2004
    16.4800

     occupation numbers 
     1.0000   1.0000   1.0000   1.0000   1.0000   1.0000   1.0000   1.0000
     1.0000   1.0000   1.0000   1.0000   1.0000   1.0000   1.0000   1.0000
     1.0000   1.0000   1.0000   1.0000  -0.0309  -0.0000  -0.0000  -0.0000
    -0.0000

          k = 0.1991 0.1991 0.5974 (  3029 PWs)   bands (ev):

   -53.5055 -27.3655 -27.3475 -27.3473 -22.1159  -7.0362  -6.1829  -6.0422
    -4.2067  -3.9292  -3.7602   5.7919   6.4719   6.8641   6.9374   7.1011
     7.9103   9.2514   9.2918   9.5617  12.6390  13.2302  13.2615  15.2004
    16.4800

     occupation numbers 
     1.0000   1.0000   1.0000   1.0000   1.0000   1.0000   1.0000   1.0000
     1.0000   1.0000   1.0000   1.0000   1.0000   1.0000   1.0000   1.0000
     1.0000   1.0000   1.0000   1.0000  -0.0309  -0.0000  -0.0000  -0.0000
    -0.0000

          k = 0.1991 0.1991 0.7965 (  3058 PWs)   bands (ev):

   -53.5057 -27.3489 -27.3483 -27.3483 -22.1300  -7.1283  -6.1574  -6.1574
    -4.0844  -4.0844  -3.7863   6.2602   6.9036   6.9036   7.6579   7.6579
     7.9490   9.3617   9.3617   9.5382  12.4952  12.6032  12.6032  15.2263
    15.2263

     occupation numbers 
     1.0000   1.0000   1.0000   1.0000   1.0000   1.0000   1.0000   1.0000
     1.0000   1.0000   1.0000   1.0000   1.0000   1.0000   1.0000   1.0000
     1.0000   1.0000   1.0000   1.0000   0.1083  -0.0174  -0.0174  -0.0000
    -0.0000

          k = 0.1991 0.3982 0.0000 (  3028 PWs)   bands (ev):

   -53.5056 -27.3663 -27.3480 -27.3369 -22.1235  -7.2279  -6.1781  -6.0442
    -4.0866  -3.9794  -3.6882   5.8254   6.5975   6.8861   7.2258   7.7747
     8.3898   8.9770   9.0184   9.4468  12.2609  13.1564  13.2001  14.2281
    16.2808

     occupation numbers 
     1.0000   1.0000   1.0000   1.0000   1.0000   1.0000   1.0000   1.0000
     1.0000   1.0000   1.0000   1.0000   1.0000   1.0000   1.0000   1.0000
     1.0000   1.0000   1.0000   1.0000   0.7561  -0.0001  -0.0000  -0.0000
    -0.0000

          k = 0.1991 0.3982 0.1991 (  3029 PWs)   bands (ev):

   -53.5055 -27.3655 -27.3475 -27.3473 -22.1159  -7.0362  -6.1829  -6.0422
    -4.2067  -3.9292  -3.7602   5.7919   6.4719   6.8641   6.9374   7.1011
     7.9103   9.2514   9.2918   9.5617  12.6390  13.2302  13.2615  15.2004
    16.4800

     occupation numbers 
     1.0000   1.0000   1.0000   1.0000   1.0000   1.0000   1.0000   1.0000
     1.0000   1.0000   1.0000   1.0000   1.0000   1.0000   1.0000   1.0000
     1.0000   1.0000   1.0000   1.0000  -0.0309  -0.0000  -0.0000  -0.0000
    -0.0000

          k = 0.1991 0.3982 0.3982 (  3060 PWs)   bands (ev):

   -53.5054 -27.3643 -27.3642 -27.3464 -22.1035  -6.6395  -6.2526  -6.0696
    -4.2219  -3.9978  -3.8764   5.6233   6.0707   6.0825   6.8669   7.0238
     7.3451   9.3534   9.4334  10.1383  13.2978  13.3307  13.5627  15.7445
    17.3480

     occupation numbers 
     1.0000   1.0000   1.0000   1.0000   1.0000   1.0000   1.0000   1.0000
     1.0000   1.0000   1.0000   1.0000   1.0000   1.0000   1.0000   1.0000
     1.0000   1.0000   1.0000   1.0000  -0.0000  -0.0000  -0.0000  -0.0000
    -0.0000

          k = 0.1991 0.3982 0.5974 (  3060 PWs)   bands (ev):

   -53.5054 -27.3643 -27.3642 -27.3464 -22.1035  -6.6395  -6.2526  -6.0696
    -4.2219  -3.9978  -3.8764   5.6233   6.0707   6.0825   6.8669   7.0238
     7.3451   9.3534   9.4334  10.1383  13.2978  13.3307  13.5627  15.7445
    17.3480

     occupation numbers 
     1.0000   1.0000   1.0000   1.0000   1.0000   1.0000   1.0000   1.0000
     1.0000   1.0000   1.0000   1.0000   1.0000   1.0000   1.0000   1.0000
     1.0000   1.0000   1.0000   1.0000  -0.0000  -0.0000  -0.0000  -0.0000
    -0.0000

          k = 0.1991 0.3982 0.7965 (  3029 PWs)   bands (ev):

   -53.5055 -27.3655 -27.3475 -27.3473 -22.1159  -7.0362  -6.1829  -6.0422
    -4.2067  -3.9292  -3.7602   5.7919   6.4719   6.8641   6.9374   7.1011
     7.9103   9.2514   9.2918   9.5617  12.6390  13.2302  13.2615  15.2004
    16.4800

     occupation numbers 
     1.0000   1.0000   1.0000   1.0000   1.0000   1.0000   1.0000   1.0000
     1.0000   1.0000   1.0000   1.0000   1.0000   1.0000   1.0000   1.0000
     1.0000   1.0000   1.0000   1.0000  -0.0309  -0.0000  -0.0000  -0.0000
    -0.0000

          k = 0.1991 0.5974 0.0000 (  3028 PWs)   bands (ev):

   -53.5056 -27.3663 -27.3480 -27.3369 -22.1235  -7.2279  -6.1781  -6.0442
    -4.0866  -3.9794  -3.6882   5.8254   6.5975   6.8861   7.2258   7.7747
     8.3898   8.9770   9.0184   9.4468  12.2609  13.1564  13.2001  14.2281
    16.2808

     occupation numbers 
     1.0000   1.0000   1.0000   1.0000   1.0000   1.0000   1.0000   1.0000
     1.0000   1.0000   1.0000   1.0000   1.0000   1.0000   1.0000   1.0000
     1.0000   1.0000   1.0000   1.0000   0.7561  -0.0001  -0.0000  -0.0000
    -0.0000

          k = 0.1991 0.5974 0.1991 (  3029 PWs)   bands (ev):

   -53.5055 -27.3655 -27.3475 -27.3473 -22.1159  -7.0362  -6.1829  -6.0422
    -4.2067  -3.9292  -3.7602   5.7919   6.4719   6.8641   6.9374   7.1011
     7.9103   9.2514   9.2918   9.5617  12.6390  13.2302  13.2615  15.2004
    16.4800

     occupation numbers 
     1.0000   1.0000   1.0000   1.0000   1.0000   1.0000   1.0000   1.0000
     1.0000   1.0000   1.0000   1.0000   1.0000   1.0000   1.0000   1.0000
     1.0000   1.0000   1.0000   1.0000  -0.0309  -0.0000  -0.0000  -0.0000
    -0.0000

          k = 0.1991 0.5974 0.3982 (  3060 PWs)   bands (ev):

   -53.5054 -27.3643 -27.3642 -27.3464 -22.1035  -6.6395  -6.2526  -6.0696
    -4.2219  -3.9978  -3.8764   5.6233   6.0707   6.0825   6.8669   7.0238
     7.3451   9.3534   9.4334  10.1383  13.2978  13.3307  13.5627  15.7445
    17.3480

     occupation numbers 
     1.0000   1.0000   1.0000   1.0000   1.0000   1.0000   1.0000   1.0000
     1.0000   1.0000   1.0000   1.0000   1.0000   1.0000   1.0000   1.0000
     1.0000   1.0000   1.0000   1.0000  -0.0000  -0.0000  -0.0000  -0.0000
    -0.0000

          k = 0.1991 0.5974 0.5974 (  3060 PWs)   bands (ev):

   -53.5054 -27.3643 -27.3642 -27.3464 -22.1035  -6.6395  -6.2526  -6.0696
    -4.2219  -3.9978  -3.8764   5.6233   6.0707   6.0825   6.8669   7.0238
     7.3451   9.3534   9.4334  10.1383  13.2978  13.3307  13.5627  15.7445
    17.3480

     occupation numbers 
     1.0000   1.0000   1.0000   1.0000   1.0000   1.0000   1.0000   1.0000
     1.0000   1.0000   1.0000   1.0000   1.0000   1.0000   1.0000   1.0000
     1.0000   1.0000   1.0000   1.0000  -0.0000  -0.0000  -0.0000  -0.0000
    -0.0000

          k = 0.1991 0.5974 0.7965 (  3029 PWs)   bands (ev):

   -53.5055 -27.3655 -27.3475 -27.3473 -22.1159  -7.0362  -6.1829  -6.0422
    -4.2067  -3.9292  -3.7602   5.7919   6.4719   6.8641   6.9374   7.1011
     7.9103   9.2514   9.2918   9.5617  12.6390  13.2302  13.2615  15.2004
    16.4800

     occupation numbers 
     1.0000   1.0000   1.0000   1.0000   1.0000   1.0000   1.0000   1.0000
     1.0000   1.0000   1.0000   1.0000   1.0000   1.0000   1.0000   1.0000
     1.0000   1.0000   1.0000   1.0000  -0.0309  -0.0000  -0.0000  -0.0000
    -0.0000

          k = 0.1991 0.7965 0.0000 (  3023 PWs)   bands (ev):

   -53.5058 -27.3494 -27.3488 -27.3378 -22.1387  -7.2320  -6.2218  -6.0704
    -4.1213  -4.0162  -3.8763   6.4751   6.8947   7.1968   7.6784   8.3061
     8.7980   9.0819   9.3312   9.4915  12.1757  12.3067  12.5167  14.1010
    15.2331

     occupation numbers 
     1.0000   1.0000   1.0000   1.0000   1.0000   1.0000   1.0000   1.0000
     1.0000   1.0000   1.0000   1.0000   1.0000   1.0000   1.0000   1.0000
     1.0000   1.0000   1.0000   1.0000   0.9344   0.6269   0.0713  -0.0000
    -0.0000

          k = 0.1991 0.7965 0.1991 (  3058 PWs)   bands (ev):

   -53.5057 -27.3489 -27.3483 -27.3483 -22.1300  -7.1283  -6.1574  -6.1574
    -4.0844  -4.0844  -3.7863   6.2602   6.9036   6.9036   7.6579   7.6579
     7.9490   9.3617   9.3617   9.5382  12.4952  12.6032  12.6032  15.2263
    15.2263

     occupation numbers 
     1.0000   1.0000   1.0000   1.0000   1.0000   1.0000   1.0000   1.0000
     1.0000   1.0000   1.0000   1.0000   1.0000   1.0000   1.0000   1.0000
     1.0000   1.0000   1.0000   1.0000   0.1083  -0.0174  -0.0174  -0.0000
    -0.0000

          k = 0.1991 0.7965 0.3982 (  3029 PWs)   bands (ev):

   -53.5055 -27.3655 -27.3475 -27.3473 -22.1159  -7.0362  -6.1829  -6.0422
    -4.2067  -3.9292  -3.7602   5.7919   6.4719   6.8641   6.9374   7.1011
     7.9103   9.2514   9.2918   9.5617  12.6390  13.2302  13.2615  15.2004
    16.4800

     occupation numbers 
     1.0000   1.0000   1.0000   1.0000   1.0000   1.0000   1.0000   1.0000
     1.0000   1.0000   1.0000   1.0000   1.0000   1.0000   1.0000   1.0000
     1.0000   1.0000   1.0000   1.0000  -0.0309  -0.0000  -0.0000  -0.0000
    -0.0000

          k = 0.1991 0.7965 0.5974 (  3029 PWs)   bands (ev):

   -53.5055 -27.3655 -27.3475 -27.3473 -22.1159  -7.0362  -6.1829  -6.0422
    -4.2067  -3.9292  -3.7602   5.7919   6.4719   6.8641   6.9374   7.1011
     7.9103   9.2514   9.2918   9.5617  12.6390  13.2302  13.2615  15.2004
    16.4800

     occupation numbers 
     1.0000   1.0000   1.0000   1.0000   1.0000   1.0000   1.0000   1.0000
     1.0000   1.0000   1.0000   1.0000   1.0000   1.0000   1.0000   1.0000
     1.0000   1.0000   1.0000   1.0000  -0.0309  -0.0000  -0.0000  -0.0000
    -0.0000

          k = 0.1991 0.7965 0.7965 (  3058 PWs)   bands (ev):

   -53.5057 -27.3489 -27.3483 -27.3483 -22.1300  -7.1283  -6.1574  -6.1574
    -4.0844  -4.0844  -3.7863   6.2602   6.9036   6.9036   7.6579   7.6579
     7.9490   9.3617   9.3617   9.5382  12.4952  12.6032  12.6032  15.2263
    15.2263

     occupation numbers 
     1.0000   1.0000   1.0000   1.0000   1.0000   1.0000   1.0000   1.0000
     1.0000   1.0000   1.0000   1.0000   1.0000   1.0000   1.0000   1.0000
     1.0000   1.0000   1.0000   1.0000   0.1083  -0.0174  -0.0174  -0.0000
    -0.0000

          k = 0.3982 0.0000 0.0000 (  3042 PWs)   bands (ev):

   -53.5058 -27.3672 -27.3375 -27.3375 -22.1312  -7.4231  -6.0663  -6.0053
    -4.1092  -4.1092  -3.6086   5.8713   7.1998   7.1998   7.9644   7.9644
     7.9743   8.3962   9.5609   9.5609  11.5323  13.1625  13.1625  13.6149
    15.7098

     occupation numbers 
     1.0000   1.0000   1.0000   1.0000   1.0000   1.0000   1.0000   1.0000
     1.0000   1.0000   1.0000   1.0000   1.0000   1.0000   1.0000   1.0000
     1.0000   1.0000   1.0000   1.0000   1.0001  -0.0001  -0.0001  -0.0000
    -0.0000

          k = 0.3982 0.0000 0.1991 (  3028 PWs)   bands (ev):

   -53.5056 -27.3663 -27.3480 -27.3369 -22.1235  -7.2279  -6.1781  -6.0442
    -4.0866  -3.9794  -3.6882   5.8254   6.5975   6.8861   7.2258   7.7747
     8.3898   8.9770   9.0184   9.4468  12.2609  13.1564  13.2001  14.2281
    16.2808

     occupation numbers 
     1.0000   1.0000   1.0000   1.0000   1.0000   1.0000   1.0000   1.0000
     1.0000   1.0000   1.0000   1.0000   1.0000   1.0000   1.0000   1.0000
     1.0000   1.0000   1.0000   1.0000   0.7561  -0.0001  -0.0000  -0.0000
    -0.0000

          k = 0.3982 0.0000 0.3982 (  3060 PWs)   bands (ev):

   -53.5055 -27.3650 -27.3648 -27.3360 -22.1110  -6.8239  -6.3759  -6.1525
    -4.0493  -3.8087  -3.7762   5.6092   5.8291   6.0745   7.2957   7.4653
     8.4494   8.6463   8.7986  10.1165  13.1289  13.1679  13.4925  14.5526
    17.3583

     occupation numbers 
     1.0000   1.0000   1.0000   1.0000   1.0000   1.0000   1.0000   1.0000
     1.0000   1.0000   1.0000   1.0000   1.0000   1.0000   1.0000   1.0000
     1.0000   1.0000   1.0000   1.0000  -0.0002  -0.0001  -0.0000  -0.0000
    -0.0000

          k = 0.3982 0.0000 0.5974 (  3060 PWs)   bands (ev):

   -53.5055 -27.3650 -27.3648 -27.3360 -22.1110  -6.8239  -6.3759  -6.1525
    -4.0493  -3.8087  -3.7762   5.6092   5.8291   6.0745   7.2957   7.4653
     8.4494   8.6463   8.7986  10.1165  13.1289  13.1679  13.4925  14.5526
    17.3583

     occupation numbers 
     1.0000   1.0000   1.0000   1.0000   1.0000   1.0000   1.0000   1.0000
     1.0000   1.0000   1.0000   1.0000   1.0000   1.0000   1.0000   1.0000
     1.0000   1.0000   1.0000   1.0000  -0.0002  -0.0001  -0.0000  -0.0000
    -0.0000

          k = 0.3982 0.0000 0.7965 (  3028 PWs)   bands (ev):

   -53.5056 -27.3663 -27.3480 -27.3369 -22.1235  -7.2279  -6.1781  -6.0442
    -4.0866  -3.9794  -3.6882   5.8254   6.5975   6.8861   7.2258   7.7747
     8.3898   8.9770   9.0184   9.4468  12.2609  13.1564  13.2001  14.2281
    16.2808

     occupation numbers 
     1.0000   1.0000   1.0000   1.0000   1.0000   1.0000   1.0000   1.0000
     1.0000   1.0000   1.0000   1.0000   1.0000   1.0000   1.0000   1.0000
     1.0000   1.0000   1.0000   1.0000   0.7561  -0.0001  -0.0000  -0.0000
    -0.0000

          k = 0.3982 0.1991 0.0000 (  3028 PWs)   bands (ev):

   -53.5056 -27.3663 -27.3480 -27.3369 -22.1235  -7.2279  -6.1781  -6.0442
    -4.0866  -3.9794  -3.6882   5.8254   6.5975   6.8861   7.2258   7.7747
     8.3898   8.9770   9.0184   9.4468  12.2609  13.1564  13.2001  14.2281
    16.2808

     occupation numbers 
     1.0000   1.0000   1.0000   1.0000   1.0000   1.0000   1.0000   1.0000
     1.0000   1.0000   1.0000   1.0000   1.0000   1.0000   1.0000   1.0000
     1.0000   1.0000   1.0000   1.0000   0.7561  -0.0001  -0.0000  -0.0000
    -0.0000

          k = 0.3982 0.1991 0.1991 (  3029 PWs)   bands (ev):

   -53.5055 -27.3655 -27.3475 -27.3473 -22.1159  -7.0362  -6.1829  -6.0422
    -4.2067  -3.9292  -3.7602   5.7919   6.4719   6.8641   6.9374   7.1011
     7.9103   9.2514   9.2918   9.5617  12.6390  13.2302  13.2615  15.2004
    16.4800

     occupation numbers 
     1.0000   1.0000   1.0000   1.0000   1.0000   1.0000   1.0000   1.0000
     1.0000   1.0000   1.0000   1.0000   1.0000   1.0000   1.0000   1.0000
     1.0000   1.0000   1.0000   1.0000  -0.0309  -0.0000  -0.0000  -0.0000
    -0.0000

          k = 0.3982 0.1991 0.3982 (  3060 PWs)   bands (ev):

   -53.5054 -27.3643 -27.3642 -27.3464 -22.1035  -6.6395  -6.2526  -6.0696
    -4.2219  -3.9978  -3.8764   5.6233   6.0707   6.0825   6.8669   7.0238
     7.3451   9.3534   9.4334  10.1383  13.2978  13.3307  13.5627  15.7445
    17.3480

     occupation numbers 
     1.0000   1.0000   1.0000   1.0000   1.0000   1.0000   1.0000   1.0000
     1.0000   1.0000   1.0000   1.0000   1.0000   1.0000   1.0000   1.0000
     1.0000   1.0000   1.0000   1.0000  -0.0000  -0.0000  -0.0000  -0.0000
    -0.0000

          k = 0.3982 0.1991 0.5974 (  3060 PWs)   bands (ev):

   -53.5054 -27.3643 -27.3642 -27.3464 -22.1035  -6.6395  -6.2526  -6.0696
    -4.2219  -3.9978  -3.8764   5.6233   6.0707   6.0825   6.8669   7.0238
     7.3451   9.3534   9.4334  10.1383  13.2978  13.3307  13.5627  15.7445
    17.3480

     occupation numbers 
     1.0000   1.0000   1.0000   1.0000   1.0000   1.0000   1.0000   1.0000
     1.0000   1.0000   1.0000   1.0000   1.0000   1.0000   1.0000   1.0000
     1.0000   1.0000   1.0000   1.0000  -0.0000  -0.0000  -0.0000  -0.0000
    -0.0000

          k = 0.3982 0.1991 0.7965 (  3029 PWs)   bands (ev):

   -53.5055 -27.3655 -27.3475 -27.3473 -22.1159  -7.0362  -6.1829  -6.0422
    -4.2067  -3.9292  -3.7602   5.7919   6.4719   6.8641   6.9374   7.1011
     7.9103   9.2514   9.2918   9.5617  12.6390  13.2302  13.2615  15.2004
    16.4800

     occupation numbers 
     1.0000   1.0000   1.0000   1.0000   1.0000   1.0000   1.0000   1.0000
     1.0000   1.0000   1.0000   1.0000   1.0000   1.0000   1.0000   1.0000
     1.0000   1.0000   1.0000   1.0000  -0.0309  -0.0000  -0.0000  -0.0000
    -0.0000

          k = 0.3982 0.3982 0.0000 (  3060 PWs)   bands (ev):

   -53.5055 -27.3650 -27.3648 -27.3360 -22.1110  -6.8239  -6.3759  -6.1525
    -4.0493  -3.8087  -3.7762   5.6092   5.8291   6.0745   7.2957   7.4653
     8.4494   8.6463   8.7986  10.1165  13.1289  13.1679  13.4925  14.5526
    17.3583

     occupation numbers 
     1.0000   1.0000   1.0000   1.0000   1.0000   1.0000   1.0000   1.0000
     1.0000   1.0000   1.0000   1.0000   1.0000   1.0000   1.0000   1.0000
     1.0000   1.0000   1.0000   1.0000  -0.0002  -0.0001  -0.0000  -0.0000
    -0.0000

          k = 0.3982 0.3982 0.1991 (  3060 PWs)   bands (ev):

   -53.5054 -27.3643 -27.3642 -27.3464 -22.1035  -6.6395  -6.2526  -6.0696
    -4.2219  -3.9978  -3.8764   5.6233   6.0707   6.0825   6.8669   7.0238
     7.3451   9.3534   9.4334  10.1383  13.2978  13.3307  13.5627  15.7445
    17.3480

     occupation numbers 
     1.0000   1.0000   1.0000   1.0000   1.0000   1.0000   1.0000   1.0000
     1.0000   1.0000   1.0000   1.0000   1.0000   1.0000   1.0000   1.0000
     1.0000   1.0000   1.0000   1.0000  -0.0000  -0.0000  -0.0000  -0.0000
    -0.0000

          k = 0.3982 0.3982 0.3982 (  3043 PWs)   bands (ev):

   -53.5052 -27.3632 -27.3631 -27.3631 -22.0913  -6.2600  -5.9994  -5.9994
    -4.3556  -4.3556  -4.1665   5.4855   6.0974   6.0974   6.4212   6.6198
     6.6198  10.0711  10.0711  10.2299  13.6690  13.6903  13.6903  17.2914
    17.2914

     occupation numbers 
     1.0000   1.0000   1.0000   1.0000   1.0000   1.0000   1.0000   1.0000
     1.0000   1.0000   1.0000   1.0000   1.0000   1.0000   1.0000   1.0000
     1.0000   1.0000   1.0000   1.0000  -0.0000  -0.0000  -0.0000  -0.0000
    -0.0000

          k = 0.3982 0.3982 0.5974 (  3043 PWs)   bands (ev):

   -53.5052 -27.3632 -27.3631 -27.3631 -22.0913  -6.2600  -5.9994  -5.9994
    -4.3556  -4.3556  -4.1665   5.4855   6.0974   6.0974   6.4212   6.6198
     6.6198  10.0711  10.0711  10.2299  13.6690  13.6903  13.6903  17.2914
    17.2914

     occupation numbers 
     1.0000   1.0000   1.0000   1.0000   1.0000   1.0000   1.0000   1.0000
     1.0000   1.0000   1.0000   1.0000   1.0000   1.0000   1.0000   1.0000
     1.0000   1.0000   1.0000   1.0000  -0.0000  -0.0000  -0.0000  -0.0000
    -0.0000

          k = 0.3982 0.3982 0.7965 (  3060 PWs)   bands (ev):

   -53.5054 -27.3643 -27.3642 -27.3464 -22.1035  -6.6395  -6.2526  -6.0696
    -4.2219  -3.9978  -3.8764   5.6233   6.0707   6.0825   6.8669   7.0238
     7.3451   9.3534   9.4334  10.1383  13.2978  13.3307  13.5627  15.7445
    17.3480

     occupation numbers 
     1.0000   1.0000   1.0000   1.0000   1.0000   1.0000   1.0000   1.0000
     1.0000   1.0000   1.0000   1.0000   1.0000   1.0000   1.0000   1.0000
     1.0000   1.0000   1.0000   1.0000  -0.0000  -0.0000  -0.0000  -0.0000
    -0.0000

          k = 0.3982 0.5974 0.0000 (  3060 PWs)   bands (ev):

   -53.5055 -27.3650 -27.3648 -27.3360 -22.1110  -6.8239  -6.3759  -6.1525
    -4.0493  -3.8087  -3.7762   5.6092   5.8291   6.0745   7.2957   7.4653
     8.4494   8.6463   8.7986  10.1165  13.1289  13.1679  13.4925  14.5526
    17.3583

     occupation numbers 
     1.0000   1.0000   1.0000   1.0000   1.0000   1.0000   1.0000   1.0000
     1.0000   1.0000   1.0000   1.0000   1.0000   1.0000   1.0000   1.0000
     1.0000   1.0000   1.0000   1.0000  -0.0002  -0.0001  -0.0000  -0.0000
    -0.0000

          k = 0.3982 0.5974 0.1991 (  3060 PWs)   bands (ev):

   -53.5054 -27.3643 -27.3642 -27.3464 -22.1035  -6.6395  -6.2526  -6.0696
    -4.2219  -3.9978  -3.8764   5.6233   6.0707   6.0825   6.8669   7.0238
     7.3451   9.3534   9.4334  10.1383  13.2978  13.3307  13.5627  15.7445
    17.3480

     occupation numbers 
     1.0000   1.0000   1.0000   1.0000   1.0000   1.0000   1.0000   1.0000
     1.0000   1.0000   1.0000   1.0000   1.0000   1.0000   1.0000   1.0000
     1.0000   1.0000   1.0000   1.0000  -0.0000  -0.0000  -0.0000  -0.0000
    -0.0000

          k = 0.3982 0.5974 0.3982 (  3043 PWs)   bands (ev):

   -53.5052 -27.3632 -27.3631 -27.3631 -22.0913  -6.2600  -5.9994  -5.9994
    -4.3556  -4.3556  -4.1665   5.4855   6.0974   6.0974   6.4212   6.6198
     6.6198  10.0711  10.0711  10.2299  13.6690  13.6903  13.6903  17.2914
    17.2914

     occupation numbers 
     1.0000   1.0000   1.0000   1.0000   1.0000   1.0000   1.0000   1.0000
     1.0000   1.0000   1.0000   1.0000   1.0000   1.0000   1.0000   1.0000
     1.0000   1.0000   1.0000   1.0000  -0.0000  -0.0000  -0.0000  -0.0000
    -0.0000

          k = 0.3982 0.5974 0.5974 (  3043 PWs)   bands (ev):

   -53.5052 -27.3632 -27.3631 -27.3631 -22.0913  -6.2600  -5.9994  -5.9994
    -4.3556  -4.3556  -4.1665   5.4855   6.0974   6.0974   6.4212   6.6198
     6.6198  10.0711  10.0711  10.2299  13.6690  13.6903  13.6903  17.2914
    17.2914

     occupation numbers 
     1.0000   1.0000   1.0000   1.0000   1.0000   1.0000   1.0000   1.0000
     1.0000   1.0000   1.0000   1.0000   1.0000   1.0000   1.0000   1.0000
     1.0000   1.0000   1.0000   1.0000  -0.0000  -0.0000  -0.0000  -0.0000
    -0.0000

          k = 0.3982 0.5974 0.7965 (  3060 PWs)   bands (ev):

   -53.5054 -27.3643 -27.3642 -27.3464 -22.1035  -6.6395  -6.2526  -6.0696
    -4.2219  -3.9978  -3.8764   5.6233   6.0707   6.0825   6.8669   7.0238
     7.3451   9.3534   9.4334  10.1383  13.2978  13.3307  13.5627  15.7445
    17.3480

     occupation numbers 
     1.0000   1.0000   1.0000   1.0000   1.0000   1.0000   1.0000   1.0000
     1.0000   1.0000   1.0000   1.0000   1.0000   1.0000   1.0000   1.0000
     1.0000   1.0000   1.0000   1.0000  -0.0000  -0.0000  -0.0000  -0.0000
    -0.0000

          k = 0.3982 0.7965 0.0000 (  3028 PWs)   bands (ev):

   -53.5056 -27.3663 -27.3480 -27.3369 -22.1235  -7.2279  -6.1781  -6.0442
    -4.0866  -3.9794  -3.6882   5.8254   6.5975   6.8861   7.2258   7.7747
     8.3898   8.9770   9.0184   9.4468  12.2609  13.1564  13.2001  14.2281
    16.2808

     occupation numbers 
     1.0000   1.0000   1.0000   1.0000   1.0000   1.0000   1.0000   1.0000
     1.0000   1.0000   1.0000   1.0000   1.0000   1.0000   1.0000   1.0000
     1.0000   1.0000   1.0000   1.0000   0.7561  -0.0001  -0.0000  -0.0000
    -0.0000

          k = 0.3982 0.7965 0.1991 (  3029 PWs)   bands (ev):

   -53.5055 -27.3655 -27.3475 -27.3473 -22.1159  -7.0362  -6.1829  -6.0422
    -4.2067  -3.9292  -3.7602   5.7919   6.4719   6.8641   6.9374   7.1011
     7.9103   9.2514   9.2918   9.5617  12.6390  13.2302  13.2615  15.2004
    16.4800

     occupation numbers 
     1.0000   1.0000   1.0000   1.0000   1.0000   1.0000   1.0000   1.0000
     1.0000   1.0000   1.0000   1.0000   1.0000   1.0000   1.0000   1.0000
     1.0000   1.0000   1.0000   1.0000  -0.0309  -0.0000  -0.0000  -0.0000
    -0.0000

          k = 0.3982 0.7965 0.3982 (  3060 PWs)   bands (ev):

   -53.5054 -27.3643 -27.3642 -27.3464 -22.1035  -6.6395  -6.2526  -6.0696
    -4.2219  -3.9978  -3.8764   5.6233   6.0707   6.0825   6.8669   7.0238
     7.3451   9.3534   9.4334  10.1383  13.2978  13.3307  13.5627  15.7445
    17.3480

[...]
     1.0000   1.0000   1.0000   1.0000   1.0000   1.0000   1.0000   1.0000
     1.0000   1.0000   1.0000   1.0000  -0.0000  -0.0000  -0.0000  -0.0000
    -0.0000

          k = 0.5974 0.7965 0.0000 (  3028 PWs)   bands (ev):

   -53.5056 -27.3663 -27.3480 -27.3369 -22.1235  -7.2279  -6.1781  -6.0442
    -4.0866  -3.9794  -3.6882   5.8254   6.5975   6.8861   7.2258   7.7747
     8.3898   8.9770   9.0184   9.4468  12.2609  13.1564  13.2001  14.2281
    16.2808

     occupation numbers 
     1.0000   1.0000   1.0000   1.0000   1.0000   1.0000   1.0000   1.0000
     1.0000   1.0000   1.0000   1.0000   1.0000   1.0000   1.0000   1.0000
     1.0000   1.0000   1.0000   1.0000   0.7561  -0.0001  -0.0000  -0.0000
    -0.0000

          k = 0.5974 0.7965 0.1991 (  3029 PWs)   bands (ev):

   -53.5055 -27.3655 -27.3475 -27.3473 -22.1159  -7.0362  -6.1829  -6.0422
    -4.2067  -3.9292  -3.7602   5.7919   6.4719   6.8641   6.9374   7.1011
     7.9103   9.2514   9.2918   9.5617  12.6390  13.2302  13.2615  15.2004
    16.4800

     occupation numbers 
     1.0000   1.0000   1.0000   1.0000   1.0000   1.0000   1.0000   1.0000
     1.0000   1.0000   1.0000   1.0000   1.0000   1.0000   1.0000   1.0000
     1.0000   1.0000   1.0000   1.0000  -0.0309  -0.0000  -0.0000  -0.0000
    -0.0000

          k = 0.5974 0.7965 0.3982 (  3060 PWs)   bands (ev):

   -53.5054 -27.3643 -27.3642 -27.3464 -22.1035  -6.6395  -6.2526  -6.0696
    -4.2219  -3.9978  -3.8764   5.6233   6.0707   6.0825   6.8669   7.0238
     7.3451   9.3534   9.4334  10.1383  13.2978  13.3307  13.5627  15.7445
    17.3480

     occupation numbers 
     1.0000   1.0000   1.0000   1.0000   1.0000   1.0000   1.0000   1.0000
     1.0000   1.0000   1.0000   1.0000   1.0000   1.0000   1.0000   1.0000
     1.0000   1.0000   1.0000   1.0000  -0.0000  -0.0000  -0.0000  -0.0000
    -0.0000

          k = 0.5974 0.7965 0.5974 (  3060 PWs)   bands (ev):

   -53.5054 -27.3643 -27.3642 -27.3464 -22.1035  -6.6395  -6.2526  -6.0696
    -4.2219  -3.9978  -3.8764   5.6233   6.0707   6.0825   6.8669   7.0238
     7.3451   9.3534   9.4334  10.1383  13.2978  13.3307  13.5627  15.7445
    17.3480

     occupation numbers 
     1.0000   1.0000   1.0000   1.0000   1.0000   1.0000   1.0000   1.0000
     1.0000   1.0000   1.0000   1.0000   1.0000   1.0000   1.0000   1.0000
     1.0000   1.0000   1.0000   1.0000  -0.0000  -0.0000  -0.0000  -0.0000
    -0.0000

          k = 0.5974 0.7965 0.7965 (  3029 PWs)   bands (ev):

   -53.5055 -27.3655 -27.3475 -27.3473 -22.1159  -7.0362  -6.1829  -6.0422
    -4.2067  -3.9292  -3.7602   5.7919   6.4719   6.8641   6.9374   7.1011
     7.9103   9.2514   9.2918   9.5617  12.6390  13.2302  13.2615  15.2004
    16.4800

     occupation numbers 
     1.0000   1.0000   1.0000   1.0000   1.0000   1.0000   1.0000   1.0000
     1.0000   1.0000   1.0000   1.0000   1.0000   1.0000   1.0000   1.0000
     1.0000   1.0000   1.0000   1.0000  -0.0309  -0.0000  -0.0000  -0.0000
    -0.0000

          k = 0.7965 0.0000 0.0000 (  3022 PWs)   bands (ev):

   -53.5059 -27.3498 -27.3384 -27.3384 -22.1480  -7.2979  -6.1378  -6.0905
    -4.1426  -4.1426  -3.9221   6.7019   7.1988   7.1988   8.6244   8.6244
     8.8356   8.9745   9.7439   9.7439  11.4676  12.2321  12.2321  13.6082
    14.6280

     occupation numbers 
     1.0000   1.0000   1.0000   1.0000   1.0000   1.0000   1.0000   1.0000
     1.0000   1.0000   1.0000   1.0000   1.0000   1.0000   1.0000   1.0000
     1.0000   1.0000   1.0000   1.0000   1.0000   0.8269   0.8269  -0.0000
    -0.0000

          k = 0.7965 0.0000 0.1991 (  3023 PWs)   bands (ev):

   -53.5058 -27.3494 -27.3488 -27.3378 -22.1387  -7.2320  -6.2218  -6.0704
    -4.1213  -4.0162  -3.8763   6.4751   6.8947   7.1968   7.6784   8.3061
     8.7980   9.0819   9.3312   9.4915  12.1757  12.3067  12.5167  14.1010
    15.2331

     occupation numbers 
     1.0000   1.0000   1.0000   1.0000   1.0000   1.0000   1.0000   1.0000
     1.0000   1.0000   1.0000   1.0000   1.0000   1.0000   1.0000   1.0000
     1.0000   1.0000   1.0000   1.0000   0.9344   0.6269   0.0713  -0.0000
    -0.0000

          k = 0.7965 0.0000 0.3982 (  3028 PWs)   bands (ev):

   -53.5056 -27.3663 -27.3480 -27.3369 -22.1235  -7.2279  -6.1781  -6.0442
    -4.0866  -3.9794  -3.6882   5.8254   6.5975   6.8861   7.2258   7.7747
     8.3898   8.9770   9.0184   9.4468  12.2609  13.1564  13.2001  14.2281
    16.2808

     occupation numbers 
     1.0000   1.0000   1.0000   1.0000   1.0000   1.0000   1.0000   1.0000
     1.0000   1.0000   1.0000   1.0000   1.0000   1.0000   1.0000   1.0000
     1.0000   1.0000   1.0000   1.0000   0.7561  -0.0001  -0.0000  -0.0000
    -0.0000

          k = 0.7965 0.0000 0.5974 (  3028 PWs)   bands (ev):

   -53.5056 -27.3663 -27.3480 -27.3369 -22.1235  -7.2279  -6.1781  -6.0442
    -4.0866  -3.9794  -3.6882   5.8254   6.5975   6.8861   7.2258   7.7747
     8.3898   8.9770   9.0184   9.4468  12.2609  13.1564  13.2001  14.2281
    16.2808

     occupation numbers 
     1.0000   1.0000   1.0000   1.0000   1.0000   1.0000   1.0000   1.0000
     1.0000   1.0000   1.0000   1.0000   1.0000   1.0000   1.0000   1.0000
     1.0000   1.0000   1.0000   1.0000   0.7561  -0.0001  -0.0000  -0.0000
    -0.0000

          k = 0.7965 0.0000 0.7965 (  3023 PWs)   bands (ev):

   -53.5058 -27.3494 -27.3488 -27.3378 -22.1387  -7.2320  -6.2218  -6.0704
    -4.1213  -4.0162  -3.8763   6.4751   6.8947   7.1968   7.6784   8.3061
     8.7980   9.0819   9.3312   9.4915  12.1757  12.3067  12.5167  14.1010
    15.2331

     occupation numbers 
     1.0000   1.0000   1.0000   1.0000   1.0000   1.0000   1.0000   1.0000
     1.0000   1.0000   1.0000   1.0000   1.0000   1.0000   1.0000   1.0000
     1.0000   1.0000   1.0000   1.0000   0.9344   0.6269   0.0713  -0.0000
    -0.0000

          k = 0.7965 0.1991 0.0000 (  3023 PWs)   bands (ev):

   -53.5058 -27.3494 -27.3488 -27.3378 -22.1387  -7.2320  -6.2218  -6.0704
    -4.1213  -4.0162  -3.8763   6.4751   6.8947   7.1968   7.6784   8.3061
     8.7980   9.0819   9.3312   9.4915  12.1757  12.3067  12.5167  14.1010
    15.2331

     occupation numbers 
     1.0000   1.0000   1.0000   1.0000   1.0000   1.0000   1.0000   1.0000
     1.0000   1.0000   1.0000   1.0000   1.0000   1.0000   1.0000   1.0000
     1.0000   1.0000   1.0000   1.0000   0.9344   0.6269   0.0713  -0.0000
    -0.0000

          k = 0.7965 0.1991 0.1991 (  3058 PWs)   bands (ev):

   -53.5057 -27.3489 -27.3483 -27.3483 -22.1300  -7.1283  -6.1574  -6.1574
    -4.0844  -4.0844  -3.7863   6.2602   6.9036   6.9036   7.6579   7.6579
     7.9490   9.3617   9.3617   9.5382  12.4952  12.6032  12.6032  15.2263
    15.2263

     occupation numbers 
     1.0000   1.0000   1.0000   1.0000   1.0000   1.0000   1.0000   1.0000
     1.0000   1.0000   1.0000   1.0000   1.0000   1.0000   1.0000   1.0000
     1.0000   1.0000   1.0000   1.0000   0.1083  -0.0174  -0.0174  -0.0000
    -0.0000

          k = 0.7965 0.1991 0.3982 (  3029 PWs)   bands (ev):

   -53.5055 -27.3655 -27.3475 -27.3473 -22.1159  -7.0362  -6.1829  -6.0422
    -4.2067  -3.9292  -3.7602   5.7919   6.4719   6.8641   6.9374   7.1011
     7.9103   9.2514   9.2918   9.5617  12.6390  13.2302  13.2615  15.2004
    16.4800

     occupation numbers 
     1.0000   1.0000   1.0000   1.0000   1.0000   1.0000   1.0000   1.0000
     1.0000   1.0000   1.0000   1.0000   1.0000   1.0000   1.0000   1.0000
     1.0000   1.0000   1.0000   1.0000  -0.0309  -0.0000  -0.0000  -0.0000
    -0.0000

          k = 0.7965 0.1991 0.5974 (  3029 PWs)   bands (ev):

   -53.5055 -27.3655 -27.3475 -27.3473 -22.1159  -7.0362  -6.1829  -6.0422
    -4.2067  -3.9292  -3.7602   5.7919   6.4719   6.8641   6.9374   7.1011
     7.9103   9.2514   9.2918   9.5617  12.6390  13.2302  13.2615  15.2004
    16.4800

     occupation numbers 
     1.0000   1.0000   1.0000   1.0000   1.0000   1.0000   1.0000   1.0000
     1.0000   1.0000   1.0000   1.0000   1.0000   1.0000   1.0000   1.0000
     1.0000   1.0000   1.0000   1.0000  -0.0309  -0.0000  -0.0000  -0.0000
    -0.0000

          k = 0.7965 0.1991 0.7965 (  3058 PWs)   bands (ev):

   -53.5057 -27.3489 -27.3483 -27.3483 -22.1300  -7.1283  -6.1574  -6.1574
    -4.0844  -4.0844  -3.7863   6.2602   6.9036   6.9036   7.6579   7.6579
     7.9490   9.3617   9.3617   9.5382  12.4952  12.6032  12.6032  15.2263
    15.2263

     occupation numbers 
     1.0000   1.0000   1.0000   1.0000   1.0000   1.0000   1.0000   1.0000
     1.0000   1.0000   1.0000   1.0000   1.0000   1.0000   1.0000   1.0000
     1.0000   1.0000   1.0000   1.0000   0.1083  -0.0174  -0.0174  -0.0000
    -0.0000

          k = 0.7965 0.3982 0.0000 (  3028 PWs)   bands (ev):

   -53.5056 -27.3663 -27.3480 -27.3369 -22.1235  -7.2279  -6.1781  -6.0442
    -4.0866  -3.9794  -3.6882   5.8254   6.5975   6.8861   7.2258   7.7747
     8.3898   8.9770   9.0184   9.4468  12.2609  13.1564  13.2001  14.2281
    16.2808

     occupation numbers 
     1.0000   1.0000   1.0000   1.0000   1.0000   1.0000   1.0000   1.0000
     1.0000   1.0000   1.0000   1.0000   1.0000   1.0000   1.0000   1.0000
     1.0000   1.0000   1.0000   1.0000   0.7561  -0.0001  -0.0000  -0.0000
    -0.0000

          k = 0.7965 0.3982 0.1991 (  3029 PWs)   bands (ev):

   -53.5055 -27.3655 -27.3475 -27.3473 -22.1159  -7.0362  -6.1829  -6.0422
    -4.2067  -3.9292  -3.7602   5.7919   6.4719   6.8641   6.9374   7.1011
     7.9103   9.2514   9.2918   9.5617  12.6390  13.2302  13.2615  15.2004
    16.4800

     occupation numbers 
     1.0000   1.0000   1.0000   1.0000   1.0000   1.0000   1.0000   1.0000
     1.0000   1.0000   1.0000   1.0000   1.0000   1.0000   1.0000   1.0000
     1.0000   1.0000   1.0000   1.0000  -0.0309  -0.0000  -0.0000  -0.0000
    -0.0000

          k = 0.7965 0.3982 0.3982 (  3060 PWs)   bands (ev):

   -53.5054 -27.3643 -27.3642 -27.3464 -22.1035  -6.6395  -6.2526  -6.0696
    -4.2219  -3.9978  -3.8764   5.6233   6.0707   6.0825   6.8669   7.0238
     7.3451   9.3534   9.4334  10.1383  13.2978  13.3307  13.5627  15.7445
    17.3480

     occupation numbers 
     1.0000   1.0000   1.0000   1.0000   1.0000   1.0000   1.0000   1.0000
     1.0000   1.0000   1.0000   1.0000   1.0000   1.0000   1.0000   1.0000
     1.0000   1.0000   1.0000   1.0000  -0.0000  -0.0000  -0.0000  -0.0000
    -0.0000

          k = 0.7965 0.3982 0.5974 (  3060 PWs)   bands (ev):

   -53.5054 -27.3643 -27.3642 -27.3464 -22.1035  -6.6395  -6.2526  -6.0696
    -4.2219  -3.9978  -3.8764   5.6233   6.0707   6.0825   6.8669   7.0238
     7.3451   9.3534   9.4334  10.1383  13.2978  13.3307  13.5627  15.7445
    17.3480

     occupation numbers 
     1.0000   1.0000   1.0000   1.0000   1.0000   1.0000   1.0000   1.0000
     1.0000   1.0000   1.0000   1.0000   1.0000   1.0000   1.0000   1.0000
     1.0000   1.0000   1.0000   1.0000  -0.0000  -0.0000  -0.0000  -0.0000
    -0.0000

          k = 0.7965 0.3982 0.7965 (  3029 PWs)   bands (ev):

   -53.5055 -27.3655 -27.3475 -27.3473 -22.1159  -7.0362  -6.1829  -6.0422
    -4.2067  -3.9292  -3.7602   5.7919   6.4719   6.8641   6.9374   7.1011
     7.9103   9.2514   9.2918   9.5617  12.6390  13.2302  13.2615  15.2004
    16.4800

     occupation numbers 
     1.0000   1.0000   1.0000   1.0000   1.0000   1.0000   1.0000   1.0000
     1.0000   1.0000   1.0000   1.0000   1.0000   1.0000   1.0000   1.0000
     1.0000   1.0000   1.0000   1.0000  -0.0309  -0.0000  -0.0000  -0.0000
    -0.0000

          k = 0.7965 0.5974 0.0000 (  3028 PWs)   bands (ev):

   -53.5056 -27.3663 -27.3480 -27.3369 -22.1235  -7.2279  -6.1781  -6.0442
    -4.0866  -3.9794  -3.6882   5.8254   6.5975   6.8861   7.2258   7.7747
     8.3898   8.9770   9.0184   9.4468  12.2609  13.1564  13.2001  14.2281
    16.2808

     occupation numbers 
     1.0000   1.0000   1.0000   1.0000   1.0000   1.0000   1.0000   1.0000
     1.0000   1.0000   1.0000   1.0000   1.0000   1.0000   1.0000   1.0000
     1.0000   1.0000   1.0000   1.0000   0.7561  -0.0001  -0.0000  -0.0000
    -0.0000

          k = 0.7965 0.5974 0.1991 (  3029 PWs)   bands (ev):

   -53.5055 -27.3655 -27.3475 -27.3473 -22.1159  -7.0362  -6.1829  -6.0422
    -4.2067  -3.9292  -3.7602   5.7919   6.4719   6.8641   6.9374   7.1011
     7.9103   9.2514   9.2918   9.5617  12.6390  13.2302  13.2615  15.2004
    16.4800

     occupation numbers 
     1.0000   1.0000   1.0000   1.0000   1.0000   1.0000   1.0000   1.0000
     1.0000   1.0000   1.0000   1.0000   1.0000   1.0000   1.0000   1.0000
     1.0000   1.0000   1.0000   1.0000  -0.0309  -0.0000  -0.0000  -0.0000
    -0.0000

          k = 0.7965 0.5974 0.3982 (  3060 PWs)   bands (ev):

   -53.5054 -27.3643 -27.3642 -27.3464 -22.1035  -6.6395  -6.2526  -6.0696
    -4.2219  -3.9978  -3.8764   5.6233   6.0707   6.0825   6.8669   7.0238
     7.3451   9.3534   9.4334  10.1383  13.2978  13.3307  13.5627  15.7445
    17.3480

     occupation numbers 
     1.0000   1.0000   1.0000   1.0000   1.0000   1.0000   1.0000   1.0000
     1.0000   1.0000   1.0000   1.0000   1.0000   1.0000   1.0000   1.0000
     1.0000   1.0000   1.0000   1.0000  -0.0000  -0.0000  -0.0000  -0.0000
    -0.0000

          k = 0.7965 0.5974 0.5974 (  3060 PWs)   bands (ev):

   -53.5054 -27.3643 -27.3642 -27.3464 -22.1035  -6.6395  -6.2526  -6.0696
    -4.2219  -3.9978  -3.8764   5.6233   6.0707   6.0825   6.8669   7.0238
     7.3451   9.3534   9.4334  10.1383  13.2978  13.3307  13.5627  15.7445
    17.3480

     occupation numbers 
     1.0000   1.0000   1.0000   1.0000   1.0000   1.0000   1.0000   1.0000
     1.0000   1.0000   1.0000   1.0000   1.0000   1.0000   1.0000   1.0000
     1.0000   1.0000   1.0000   1.0000  -0.0000  -0.0000  -0.0000  -0.0000
    -0.0000

          k = 0.7965 0.5974 0.7965 (  3029 PWs)   bands (ev):

   -53.5055 -27.3655 -27.3475 -27.3473 -22.1159  -7.0362  -6.1829  -6.0422
    -4.2067  -3.9292  -3.7602   5.7919   6.4719   6.8641   6.9374   7.1011
     7.9103   9.2514   9.2918   9.5617  12.6390  13.2302  13.2615  15.2004
    16.4800

     occupation numbers 
     1.0000   1.0000   1.0000   1.0000   1.0000   1.0000   1.0000   1.0000
     1.0000   1.0000   1.0000   1.0000   1.0000   1.0000   1.0000   1.0000
     1.0000   1.0000   1.0000   1.0000  -0.0309  -0.0000  -0.0000  -0.0000
    -0.0000

          k = 0.7965 0.7965 0.0000 (  3023 PWs)   bands (ev):

   -53.5058 -27.3494 -27.3488 -27.3378 -22.1387  -7.2320  -6.2218  -6.0704
    -4.1213  -4.0162  -3.8763   6.4751   6.8947   7.1968   7.6784   8.3061
     8.7980   9.0819   9.3312   9.4915  12.1757  12.3067  12.5167  14.1010
    15.2331

     occupation numbers 
     1.0000   1.0000   1.0000   1.0000   1.0000   1.0000   1.0000   1.0000
     1.0000   1.0000   1.0000   1.0000   1.0000   1.0000   1.0000   1.0000
     1.0000   1.0000   1.0000   1.0000   0.9344   0.6269   0.0713  -0.0000
    -0.0000

          k = 0.7965 0.7965 0.1991 (  3058 PWs)   bands (ev):

   -53.5057 -27.3489 -27.3483 -27.3483 -22.1300  -7.1283  -6.1574  -6.1574
    -4.0844  -4.0844  -3.7863   6.2602   6.9036   6.9036   7.6579   7.6579
     7.9490   9.3617   9.3617   9.5382  12.4952  12.6032  12.6032  15.2263
    15.2263

     occupation numbers 
     1.0000   1.0000   1.0000   1.0000   1.0000   1.0000   1.0000   1.0000
     1.0000   1.0000   1.0000   1.0000   1.0000   1.0000   1.0000   1.0000
     1.0000   1.0000   1.0000   1.0000   0.1083  -0.0174  -0.0174  -0.0000
    -0.0000

          k = 0.7965 0.7965 0.3982 (  3029 PWs)   bands (ev):

   -53.5055 -27.3655 -27.3475 -27.3473 -22.1159  -7.0362  -6.1829  -6.0422
    -4.2067  -3.9292  -3.7602   5.7919   6.4719   6.8641   6.9374   7.1011
     7.9103   9.2514   9.2918   9.5617  12.6390  13.2302  13.2615  15.2004
    16.4800

     occupation numbers 
     1.0000   1.0000   1.0000   1.0000   1.0000   1.0000   1.0000   1.0000
     1.0000   1.0000   1.0000   1.0000   1.0000   1.0000   1.0000   1.0000
     1.0000   1.0000   1.0000   1.0000  -0.0309  -0.0000  -0.0000  -0.0000
    -0.0000

          k = 0.7965 0.7965 0.5974 (  3029 PWs)   bands (ev):

   -53.5055 -27.3655 -27.3475 -27.3473 -22.1159  -7.0362  -6.1829  -6.0422
    -4.2067  -3.9292  -3.7602   5.7919   6.4719   6.8641   6.9374   7.1011
     7.9103   9.2514   9.2918   9.5617  12.6390  13.2302  13.2615  15.2004
    16.4800

     occupation numbers 
     1.0000   1.0000   1.0000   1.0000   1.0000   1.0000   1.0000   1.0000
     1.0000   1.0000   1.0000   1.0000   1.0000   1.0000   1.0000   1.0000
     1.0000   1.0000   1.0000   1.0000  -0.0309  -0.0000  -0.0000  -0.0000
    -0.0000

          k = 0.7965 0.7965 0.7965 (  3058 PWs)   bands (ev):

   -53.5057 -27.3489 -27.3483 -27.3483 -22.1300  -7.1283  -6.1574  -6.1574
    -4.0844  -4.0844  -3.7863   6.2602   6.9036   6.9036   7.6579   7.6579
     7.9490   9.3617   9.3617   9.5382  12.4952  12.6032  12.6032  15.2263
    15.2263

     occupation numbers 
     1.0000   1.0000   1.0000   1.0000   1.0000   1.0000   1.0000   1.0000
     1.0000   1.0000   1.0000   1.0000   1.0000   1.0000   1.0000   1.0000
     1.0000   1.0000   1.0000   1.0000   0.1083  -0.0174  -0.0174  -0.0000
    -0.0000

     the Fermi energy is    12.3480 ev
     (compare with:    12.3481 eV, computed in scf)
     The nscf band energy is:      -16.59206129 Ry
     Calculation interrupted for call of DMFT code

     Writing all to output data dir ./QE_tmp/svo.save/

     init_run     :      0.68s CPU      0.82s WALL (       1 calls)
     electrons    :     82.31s CPU     83.09s WALL (       1 calls)

     Called by init_run:
     wfcinit      :      0.00s CPU      0.00s WALL (       1 calls)
     wfcinit:atom :      0.05s CPU      0.05s WALL (     125 calls)
     wfcinit:wfcr :      3.24s CPU      3.26s WALL (     125 calls)
     potinit      :      0.16s CPU      0.17s WALL (       1 calls)
     hinit0       :      0.36s CPU      0.36s WALL (       1 calls)

     Called by electrons:
     c_bands      :     82.10s CPU     82.70s WALL (       1 calls)
     v_of_rho     :      0.03s CPU      0.04s WALL (       1 calls)
     v_h          :      0.00s CPU      0.00s WALL (       1 calls)
     v_xc         :      0.03s CPU      0.03s WALL (       1 calls)
     newd         :      0.11s CPU      0.24s WALL (       1 calls)

     Called by c_bands:
     init_us_2    :      0.04s CPU      0.05s WALL (     125 calls)
     init_us_2:cp :      0.04s CPU      0.05s WALL (     125 calls)
     cegterg      :     78.24s CPU     78.77s WALL (     253 calls)

     Called by sum_band:

     Called by *egterg:
     cdiaghg      :      4.40s CPU      4.43s WALL (    3552 calls)
     cegterg:over :      7.10s CPU      7.12s WALL (    3427 calls)
     cegterg:upda :      1.18s CPU      1.19s WALL (    3427 calls)
     cegterg:last :      3.12s CPU      3.13s WALL (    2436 calls)
     h_psi        :     58.22s CPU     58.70s WALL (    3805 calls)
     s_psi        :      1.80s CPU      1.81s WALL (    3805 calls)
     g_psi        :      0.37s CPU      0.37s WALL (    3427 calls)

     Called by h_psi:
     h_psi:calbec :      3.88s CPU      3.90s WALL (    3805 calls)
     vloc_psi     :     52.39s CPU     52.84s WALL (    3805 calls)
     add_vuspsi   :      1.82s CPU      1.83s WALL (    3805 calls)

     General routines
     calbec       :      3.87s CPU      3.89s WALL (    3805 calls)
     fft          :      0.16s CPU      0.16s WALL (      13 calls)
     ffts         :      0.13s CPU      0.13s WALL (       1 calls)
     fftw         :     46.97s CPU     47.34s WALL (  131234 calls)
     interpolate  :      0.13s CPU      0.13s WALL (       1 calls)
     davcio       :      0.03s CPU      0.06s WALL (     250 calls)

     Parallel routines

     PWSCF        :   1m23.28s CPU   1m24.21s WALL


   This run was terminated on:  20:23:26  16Jun2025            

=------------------------------------------------------------------------------=
   JOB DONE.
=------------------------------------------------------------------------------=
