
     Program PWSCF v.7.2 starts on 16Jun2025 at 20:21:22 

     This program is part of the open-source Quantum ESPRESSO suite
     for quantum simulation of materials; please cite
         "P. Giannozzi et al., J. Phys.:Condens. Matter 21 395502 (2009);
         "P. Giannozzi et al., J. Phys.:Condens. Matter 29 465901 (2017);
         "P. Giannozzi et al., J. Chem. Phys. 152 154105 (2020);
          URL http://www.quantum-espresso.org", 
     in publications or presentations arising from this work. More details at
     http://www.quantum-espresso.org/quote

     Parallel version (MPI & OpenMP), running on       4 processor cores
     Number of MPI processes:                 4
     Threads/MPI process:                     1

     MPI processes distributed on     1 nodes
     8032 MiB available memory on the printing compute node when the environment starts

     Reading input from svo.bnd.in

     Current dimensions of program PWSCF are:
     Max number of different atomic species (ntypx) = 10
     Max number of k-points (npk) =  40000
     Max angular momentum in pseudopotentials (lmaxx) =  4

     Atomic positions and unit cell read from directory:
     ./QE_tmp/svo.save/
     Atomic positions from file used, from input discarded

     Message from routine setup:
     using ibrav=0 with symmetry is DISCOURAGED, use correct ibrav instead

     R & G space division:  proc/nbgrp/npool/nimage =       4
     Subspace diagonalization in iterative solution of the eigenvalue problem:
     a serial algorithm will be used


     Parallelization info
     --------------------
     sticks:   dense  smooth     PW     G-vecs:    dense   smooth      PW
     Min         765     251     74                31640     6075     989
     Max         766     252     76                31641     6078     990
     Sum        3061    1005    301               126563    24303    3959

     Using Slab Decomposition



     bravais-lattice index     =            0
     lattice parameter (alat)  =       7.2612  a.u.
     unit-cell volume          =     387.9249 (a.u.)^3
     number of atoms/cell      =            5
     number of atomic types    =            3
     number of electrons       =        41.00
     number of Kohn-Sham states=           25
     kinetic-energy cutoff     =      60.0000  Ry
     charge density cutoff     =     720.0000  Ry
     Exchange-correlation= SLA  PW   PBE  PBE
                           (   1   4   3   4   0   0   0)

     celldm(1)=   7.261200  celldm(2)=   0.000000  celldm(3)=   0.000000
     celldm(4)=   0.000000  celldm(5)=   0.000000  celldm(6)=   0.000000

     crystal axes: (cart. coord. in units of alat)
               a(1) = (   1.004402   0.000000   0.000000 )  
               a(2) = (   0.000000   1.004402   0.000000 )  
               a(3) = (   0.000000   0.000000   1.004402 )  

     reciprocal axes: (cart. coord. in units 2 pi/alat)
               b(1) = (  0.995617  0.000000  0.000000 )  
               b(2) = (  0.000000  0.995617  0.000000 )  
               b(3) = (  0.000000  0.000000  0.995617 )  


     PseudoPot. # 1 for Sr read from file:
     ./pseudo/sr_pbe_v1.uspp.F.UPF
     MD5 check sum: 6b418c05fbe9db5448babca5e47b7a5b
     Pseudo is Ultrasoft + core correction, Zval = 10.0
     Generated by new atomic code, or converted to UPF format
     Using radial grid of  883 points,  6 beta functions with: 
                l(1) =   0
                l(2) =   0
                l(3) =   1
                l(4) =   1
                l(5) =   2
                l(6) =   2
     Q(r) pseudized with  6 coefficients,  rinner =    1.400   1.400   1.400
                                                       1.400   1.400

     PseudoPot. # 2 for V  read from file:
     ./pseudo/v_pbe_v1.4.uspp.F.UPF
     MD5 check sum: 22b79981416ebb76fdaf5b1b8640f6fb
     Pseudo is Ultrasoft + core correction, Zval = 13.0
     Generated by new atomic code, or converted to UPF format
     Using radial grid of  853 points,  6 beta functions with: 
                l(1) =   0
                l(2) =   0
                l(3) =   1
                l(4) =   1
                l(5) =   2
                l(6) =   2
     Q(r) pseudized with  8 coefficients,  rinner =    1.100   1.100   1.100
                                                       1.100   1.100

     PseudoPot. # 3 for O  read from file:
     ./pseudo/o_pbe_v1.2.uspp.F.UPF
     MD5 check sum: 734c27235a0248c51dbae37a1fbe46ec
     Pseudo is Ultrasoft + core correction, Zval =  6.0
     Generated by new atomic code, or converted to UPF format
     Using radial grid of  737 points,  5 beta functions with: 
                l(1) =   0
                l(2) =   0
                l(3) =   1
                l(4) =   1
                l(5) =   2
     Q(r) pseudized with  8 coefficients,  rinner =    0.900   0.900   0.900
                                                       0.900   0.900

     atomic species   valence    mass     pseudopotential
        Sr            10.00    87.62000     Sr( 1.00)
        V             13.00    50.94150     V ( 1.00)
        O              6.00    15.99940     O ( 1.00)

     48 Sym. Ops., with inversion, found



   Cartesian axes

     site n.     atom                  positions (alat units)
         1           Sr  tau(   1) = (   0.0000000   0.0000000   0.0000000  )
         2           V   tau(   2) = (   0.5022009   0.5022009   0.5022009  )
         3           O   tau(   3) = (   0.5022009   0.5022009   0.0000000  )
         4           O   tau(   4) = (   0.5022009   0.0000000   0.5022009  )
         5           O   tau(   5) = (   0.0000000   0.5022009   0.5022009  )

     number of k points=    71  Methfessel-Paxton smearing, width (Ry)=  0.0200
                       cart. coord. in units 2pi/alat
        k(    1) = (   0.4978087   0.4978087   0.4978087), wk =   0.0281690
        k(    2) = (   0.4729183   0.4729183   0.4729183), wk =   0.0281690
        k(    3) = (   0.4480279   0.4480279   0.4480279), wk =   0.0281690
        k(    4) = (   0.4231374   0.4231374   0.4231374), wk =   0.0281690
        k(    5) = (   0.3982470   0.3982470   0.3982470), wk =   0.0281690
        k(    6) = (   0.3733566   0.3733566   0.3733566), wk =   0.0281690
        k(    7) = (   0.3484661   0.3484661   0.3484661), wk =   0.0281690
        k(    8) = (   0.3235757   0.3235757   0.3235757), wk =   0.0281690
        k(    9) = (   0.2986852   0.2986852   0.2986852), wk =   0.0281690
        k(   10) = (   0.2737948   0.2737948   0.2737948), wk =   0.0281690
        k(   11) = (   0.2489044   0.2489044   0.2489044), wk =   0.0281690
        k(   12) = (   0.2240139   0.2240139   0.2240139), wk =   0.0281690
        k(   13) = (   0.1991235   0.1991235   0.1991235), wk =   0.0281690
        k(   14) = (   0.1742331   0.1742331   0.1742331), wk =   0.0281690
        k(   15) = (   0.1493426   0.1493426   0.1493426), wk =   0.0281690
        k(   16) = (   0.1244522   0.1244522   0.1244522), wk =   0.0281690
        k(   17) = (   0.0995617   0.0995617   0.0995617), wk =   0.0281690
        k(   18) = (   0.0746713   0.0746713   0.0746713), wk =   0.0281690
        k(   19) = (   0.0497809   0.0497809   0.0497809), wk =   0.0281690
        k(   20) = (   0.0248904   0.0248904   0.0248904), wk =   0.0281690
        k(   21) = (   0.0000000   0.0000000   0.0000000), wk =   0.0281690
        k(   22) = (   0.0331872   0.0000000   0.0000000), wk =   0.0281690
        k(   23) = (   0.0663745   0.0000000   0.0000000), wk =   0.0281690
        k(   24) = (   0.0995617   0.0000000   0.0000000), wk =   0.0281690
        k(   25) = (   0.1327490   0.0000000   0.0000000), wk =   0.0281690
        k(   26) = (   0.1659362   0.0000000   0.0000000), wk =   0.0281690
        k(   27) = (   0.1991235   0.0000000   0.0000000), wk =   0.0281690
        k(   28) = (   0.2323107   0.0000000   0.0000000), wk =   0.0281690
        k(   29) = (   0.2654980   0.0000000   0.0000000), wk =   0.0281690
        k(   30) = (   0.2986852   0.0000000   0.0000000), wk =   0.0281690
        k(   31) = (   0.3318725   0.0000000   0.0000000), wk =   0.0281690
        k(   32) = (   0.3650597   0.0000000   0.0000000), wk =   0.0281690
        k(   33) = (   0.3982470   0.0000000   0.0000000), wk =   0.0281690
        k(   34) = (   0.4314342   0.0000000   0.0000000), wk =   0.0281690
        k(   35) = (   0.4646215   0.0000000   0.0000000), wk =   0.0281690
        k(   36) = (   0.4978087   0.0000000   0.0000000), wk =   0.0281690
        k(   37) = (   0.4978087   0.0331872   0.0000000), wk =   0.0281690
        k(   38) = (   0.4978087   0.0663745   0.0000000), wk =   0.0281690
        k(   39) = (   0.4978087   0.0995617   0.0000000), wk =   0.0281690
        k(   40) = (   0.4978087   0.1327490   0.0000000), wk =   0.0281690
        k(   41) = (   0.4978087   0.1659362   0.0000000), wk =   0.0281690
        k(   42) = (   0.4978087   0.1991235   0.0000000), wk =   0.0281690
        k(   43) = (   0.4978087   0.2323107   0.0000000), wk =   0.0281690
        k(   44) = (   0.4978087   0.2654980   0.0000000), wk =   0.0281690
        k(   45) = (   0.4978087   0.2986852   0.0000000), wk =   0.0281690
        k(   46) = (   0.4978087   0.3318725   0.0000000), wk =   0.0281690
        k(   47) = (   0.4978087   0.3650597   0.0000000), wk =   0.0281690
        k(   48) = (   0.4978087   0.3982470   0.0000000), wk =   0.0281690
        k(   49) = (   0.4978087   0.4314342   0.0000000), wk =   0.0281690
        k(   50) = (   0.4978087   0.4646215   0.0000000), wk =   0.0281690
        k(   51) = (   0.4978087   0.4978087   0.0000000), wk =   0.0281690
        k(   52) = (   0.4729183   0.4729183   0.0000000), wk =   0.0281690
        k(   53) = (   0.4480279   0.4480279   0.0000000), wk =   0.0281690
        k(   54) = (   0.4231374   0.4231374   0.0000000), wk =   0.0281690
        k(   55) = (   0.3982470   0.3982470   0.0000000), wk =   0.0281690
        k(   56) = (   0.3733566   0.3733566   0.0000000), wk =   0.0281690
        k(   57) = (   0.3484661   0.3484661   0.0000000), wk =   0.0281690
        k(   58) = (   0.3235757   0.3235757   0.0000000), wk =   0.0281690
        k(   59) = (   0.2986852   0.2986852   0.0000000), wk =   0.0281690
        k(   60) = (   0.2737948   0.2737948   0.0000000), wk =   0.0281690
        k(   61) = (   0.2489044   0.2489044   0.0000000), wk =   0.0281690
        k(   62) = (   0.2240139   0.2240139   0.0000000), wk =   0.0281690
        k(   63) = (   0.1991235   0.1991235   0.0000000), wk =   0.0281690
        k(   64) = (   0.1742331   0.1742331   0.0000000), wk =   0.0281690
        k(   65) = (   0.1493426   0.1493426   0.0000000), wk =   0.0281690
        k(   66) = (   0.1244522   0.1244522   0.0000000), wk =   0.0281690
        k(   67) = (   0.0995617   0.0995617   0.0000000), wk =   0.0281690
        k(   68) = (   0.0746713   0.0746713   0.0000000), wk =   0.0281690
        k(   69) = (   0.0497809   0.0497809   0.0000000), wk =   0.0281690
        k(   70) = (   0.0248904   0.0248904   0.0000000), wk =   0.0281690
        k(   71) = (   0.0000000   0.0000000   0.0000000), wk =   0.0281690

     Dense  grid:   126563 G-vectors     FFT dimensions: (  64,  64,  64)

     Smooth grid:    24303 G-vectors     FFT dimensions: (  36,  36,  36)

     Estimated max dynamical RAM per process >     109.55 MB

     Estimated total dynamical RAM >     438.21 MB

     Check: negative core charge=   -0.000002

     The potential is recalculated from file :
     ./QE_tmp/svo.save/charge-density


     negative rho (up, down):  6.712E-02 0.000E+00
     Starting wfcs are   35 randomized atomic wfcs

     Band Structure Calculation
     Davidson diagonalization with overlap

     ethr =  2.44E-13,  avg # of iterations = 36.8

     total cpu time spent up to now is       38.1 secs

     End of band structure calculation

          k = 0.4978 0.4978 0.4978 (  3112 PWs)   bands (ev):

   -53.5051 -27.3657 -27.3657 -27.3657 -22.0851  -5.9307  -5.9307  -5.9307
    -4.4609  -4.4609  -4.4609   5.2240   5.9445   5.9445   6.5238   6.5238
     6.5238  10.3581  10.3581  10.3581  13.8577  13.8577  13.8577  17.5876
    17.5876

          k = 0.4729 0.4729 0.4729 (  3067 PWs)   bands (ev):

   -53.5051 -27.3655 -27.3655 -27.3655 -22.0855  -5.9569  -5.9357  -5.9357
    -4.4534  -4.4534  -4.4366   5.2420   5.9544   5.9544   6.5138   6.5295
     6.5295  10.3376  10.3376  10.3497  13.8454  13.8470  13.8470  17.5823
    17.5823

          k = 0.4480 0.4480 0.4480 (  3067 PWs)   bands (ev):

   -53.5051 -27.3650 -27.3650 -27.3650 -22.0867  -6.0295  -5.9502  -5.9502
    -4.4317  -4.4317  -4.3699   5.2948   5.9837   5.9837   6.4868   6.5468
     6.5468  10.2785  10.2785  10.3249  13.8090  13.8151  13.8151  17.5362
    17.5362

          k = 0.4231 0.4231 0.4231 (  3067 PWs)   bands (ev):

   -53.5052 -27.3643 -27.3642 -27.3642 -22.0886  -6.1351  -5.9722  -5.9722
    -4.3980  -4.3980  -4.2749   5.3786   6.0318   6.0318   6.4511   6.5765
     6.5765  10.1868  10.1868  10.2845  13.7496  13.7625  13.7625  17.4359
    17.4359

          k = 0.3982 0.3982 0.3982 (  3043 PWs)   bands (ev):

   -53.5052 -27.3632 -27.3631 -27.3631 -22.0913  -6.2600  -5.9994  -5.9994
    -4.3556  -4.3556  -4.1665   5.4855   6.0974   6.0974   6.4212   6.6198
     6.6198  10.0711  10.0711  10.2299  13.6690  13.6903  13.6903  17.2914
    17.2914

          k = 0.3734 0.3734 0.3734 (  3043 PWs)   bands (ev):

   -53.5053 -27.3620 -27.3618 -27.3618 -22.0947  -6.3933  -6.0292  -6.0292
    -4.3081  -4.3081  -4.0571   5.6021   6.1784   6.1784   6.4183   6.6783
     6.6783   9.9414   9.9414  10.1628  13.5690  13.5997  13.5997  17.1100
    17.1100

          k = 0.3485 0.3485 0.3485 (  3055 PWs)   bands (ev):

   -53.5053 -27.3605 -27.3602 -27.3602 -22.0986  -6.5273  -6.0590  -6.0590
    -4.2593  -4.2593  -3.9562   5.7092   6.2722   6.2722   6.4690   6.7542
     6.7542   9.8076   9.8076  10.0853  13.4516  13.4925  13.4925  16.8971
    16.8971

          k = 0.3236 0.3236 0.3236 (  3055 PWs)   bands (ev):

   -53.5054 -27.3588 -27.3584 -27.3584 -22.1031  -6.6564  -6.0870  -6.0870
    -4.2124  -4.2124  -3.8708   5.7929   6.3757   6.3757   6.5930   6.8497
     6.8497   9.6790   9.6790   9.9999  13.3186  13.3704  13.3704  16.6576
    16.6576

          k = 0.2987 0.2987 0.2987 (  3055 PWs)   bands (ev):

   -53.5054 -27.3569 -27.3565 -27.3565 -22.1080  -6.7768  -6.1114  -6.1114
    -4.1704  -4.1704  -3.8060   5.8600   6.4849   6.4849   6.7875   6.9667
     6.9667   9.5638   9.5638   9.9089  13.1721  13.2353  13.2353  16.3963
    16.3963

          k = 0.2738 0.2738 0.2738 (  3046 PWs)   bands (ev):

   -53.5055 -27.3550 -27.3545 -27.3545 -22.1132  -6.8857  -6.1311  -6.1311
    -4.1354  -4.1354  -3.7649   5.9297   6.5960   6.5960   7.0348   7.1066
     7.1066   9.4692   9.4692   9.8149  13.0140  13.0893  13.0893  16.1177
    16.1177

          k = 0.2489 0.2489 0.2489 (  3058 PWs)   bands (ev):

   -53.5056 -27.3530 -27.3524 -27.3524 -22.1187  -6.9811  -6.1454  -6.1454
    -4.1091  -4.1091  -3.7488   6.0164   6.7052   6.7052   7.2693   7.2693
     7.3182   9.4011   9.4011   9.7203  12.8466  12.9342  12.9342  15.8266
    15.8266

          k = 0.2240 0.2240 0.2240 (  3058 PWs)   bands (ev):

   -53.5056 -27.3509 -27.3503 -27.3503 -22.1243  -7.0621  -6.1542  -6.1542
    -4.0920  -4.0920  -3.7568   6.1267   6.8089   6.8089   7.4538   7.4538
     7.6258   9.3643   9.3643   9.6273  12.6727  12.7717  12.7717  15.5278
    15.5278

          k = 0.1991 0.1991 0.1991 (  3058 PWs)   bands (ev):

   -53.5057 -27.3489 -27.3483 -27.3483 -22.1300  -7.1283  -6.1574  -6.1574
    -4.0844  -4.0844  -3.7863   6.2602   6.9036   6.9036   7.6579   7.6579
     7.9490   9.3617   9.3617   9.5382  12.4952  12.6032  12.6032  15.2263
    15.2263

          k = 0.1742 0.1742 0.1742 (  3047 PWs)   bands (ev):

   -53.5058 -27.3469 -27.3463 -27.3463 -22.1355  -7.1799  -6.1558  -6.1558
    -4.0852  -4.0852  -3.8331   6.4123   6.9863   6.9863   7.8787   7.8787
     8.2806   9.3937   9.3937   9.4550  12.3174  12.4297  12.4297  14.9278
    14.9278

          k = 0.1493 0.1493 0.1493 (  3032 PWs)   bands (ev):

   -53.5058 -27.3450 -27.3445 -27.3445 -22.1408  -7.2181  -6.1501  -6.1501
    -4.0932  -4.0932  -3.8918   6.5749   7.0551   7.0551   8.1119   8.1119
     8.6133   9.3793   9.4577   9.4577  12.1426  12.2525  12.2525  14.6386
    14.6386

          k = 0.1245 0.1245 0.1245 (  3050 PWs)   bands (ev):

   -53.5059 -27.3433 -27.3429 -27.3429 -22.1457  -7.2445  -6.1415  -6.1415
    -4.1062  -4.1062  -3.9564   6.7383   7.1096   7.1096   8.3509   8.3509
     8.9390   9.3127   9.5477   9.5477  11.9740  12.0731  12.0731  14.3659
    14.3659

          k = 0.0996 0.0996 0.0996 (  3044 PWs)   bands (ev):

   -53.5059 -27.3418 -27.3416 -27.3416 -22.1500  -7.2611  -6.1314  -6.1314
    -4.1219  -4.1219  -4.0206   6.8916   7.1506   7.1506   8.5864   8.5864
     9.2479   9.2564   9.6547   9.6547  11.8152  11.8948  11.8948  14.1185
    14.1185

          k = 0.0747 0.0747 0.0747 (  3038 PWs)   bands (ev):

   -53.5060 -27.3406 -27.3404 -27.3404 -22.1535  -7.2704  -6.1214  -6.1214
    -4.1376  -4.1376  -4.0781   7.0243   7.1799   7.1799   8.8045   8.8045
     9.2116   9.5266   9.7666   9.7666  11.6706  11.7245  11.7245  13.9069
    13.9069

          k = 0.0498 0.0498 0.0498 (  3014 PWs)   bands (ev):

   -53.5060 -27.3397 -27.3396 -27.3396 -22.1561  -7.2749  -6.1130  -6.1130
    -4.1509  -4.1509  -4.1236   7.1268   7.1992   7.1992   8.9862   8.9862
     9.1790   9.7570   9.8687   9.8687  11.5480  11.5753  11.5753  13.7428
    13.7428

          k = 0.0249 0.0249 0.0249 (  3005 PWs)   bands (ev):

   -53.5060 -27.3392 -27.3391 -27.3391 -22.1578  -7.2766  -6.1073  -6.1073
    -4.1598  -4.1598  -4.1528   7.1916   7.2102   7.2102   9.1089   9.1089
     9.1592   9.9142   9.9432   9.9432  11.4610  11.4683  11.4683  13.6381
    13.6381

          k = 0.0000 0.0000 0.0000 (  2969 PWs)   bands (ev):

   -53.5060 -27.3390 -27.3390 -27.3390 -22.1583  -7.2769  -6.1053  -6.1053
    -4.1629  -4.1629  -4.1629   7.2138   7.2138   7.2138   9.1526   9.1526
     9.1526   9.9711   9.9711   9.9711  11.4286  11.4286  11.4286  13.6020
    13.6020

          k = 0.0332 0.0000 0.0000 (  3010 PWs)   bands (ev):

   -53.5060 -27.3393 -27.3390 -27.3390 -22.1580  -7.2768  -6.1081  -6.1048
    -4.1623  -4.1623  -4.1545   7.1976   7.2132   7.2132   9.1338   9.1338
     9.1419   9.9296   9.9583   9.9583  11.4299  11.4616  11.4616  13.6023
    13.6442

          k = 0.0664 0.0000 0.0000 (  3010 PWs)   bands (ev):

   -53.5060 -27.3403 -27.3389 -27.3389 -22.1570  -7.2766  -6.1156  -6.1035
    -4.1604  -4.1604  -4.1300   7.1497   7.2116   7.2116   9.0788   9.0788
     9.1104   9.8126   9.9249   9.9249  11.4335  11.5540  11.5540  13.6030
    13.7634

          k = 0.0996 0.0000 0.0000 (  3022 PWs)   bands (ev):

   -53.5060 -27.3420 -27.3388 -27.3388 -22.1555  -7.2773  -6.1255  -6.1012
    -4.1573  -4.1573  -4.0914   7.0723   7.2090   7.2090   8.9925   8.9925
     9.0605   9.6387   9.8806   9.8806  11.4393  11.6914  11.6914  13.6040
    13.9410

          k = 0.1327 0.0000 0.0000 (  3022 PWs)   bands (ev):

   -53.5060 -27.3442 -27.3387 -27.3387 -22.1534  -7.2802  -6.1345  -6.0982
    -4.1532  -4.1532  -4.0417   6.9688   7.2058   7.2058   8.8824   8.8824
     8.9954   9.4292   9.8334   9.8334  11.4472  11.8583  11.8583  13.6053
    14.1561

          k = 0.1659 0.0000 0.0000 (  3030 PWs)   bands (ev):

   -53.5060 -27.3468 -27.3386 -27.3386 -22.1508  -7.2868  -6.1395  -6.0946
    -4.1482  -4.1482  -3.9841   6.8435   7.2023   7.2023   8.7570   8.7570
     8.9190   9.2029   9.7873   9.7873  11.4567  12.0417  12.0417  13.6067
    14.3899

          k = 0.1991 0.0000 0.0000 (  3022 PWs)   bands (ev):

   -53.5059 -27.3498 -27.3384 -27.3384 -22.1480  -7.2979  -6.1378  -6.0905
    -4.1426  -4.1426  -3.9221   6.7019   7.1988   7.1988   8.6244   8.6244
     8.8356   8.9745   9.7439   9.7439  11.4676  12.2321  12.2321  13.6082
    14.6280

          k = 0.2323 0.0000 0.0000 (  3046 PWs)   bands (ev):

   -53.5059 -27.3530 -27.3382 -27.3382 -22.1449  -7.3139  -6.1281  -6.0861
    -4.1365  -4.1365  -3.8589   6.5502   7.1958   7.1958   8.4912   8.4912
     8.7493   8.7546   9.7036   9.7036  11.4792  12.4215  12.4215  13.6097
    14.8596

          k = 0.2655 0.0000 0.0000 (  3042 PWs)   bands (ev):

   -53.5059 -27.3562 -27.3381 -27.3381 -22.1418  -7.3340  -6.1105  -6.0816
    -4.1303  -4.1303  -3.7973   6.3949   7.1938   7.1938   8.3626   8.3626
     8.5508   8.6642   9.6667   9.6667  11.4913  12.6037  12.6037  13.6110
    15.0771

          k = 0.2987 0.0000 0.0000 (  3042 PWs)   bands (ev):

   -53.5058 -27.3594 -27.3379 -27.3379 -22.1387  -7.3569  -6.0867  -6.0772
    -4.1242  -4.1242  -3.7396   6.2428   7.1932   7.1932   8.2426   8.2426
     8.3680   8.5835   9.6336   9.6336  11.5031  12.7734  12.7734  13.6122
    15.2747

          k = 0.3319 0.0000 0.0000 (  3038 PWs)   bands (ev):

   -53.5058 -27.3624 -27.3377 -27.3377 -22.1359  -7.3807  -6.0730  -6.0592
    -4.1185  -4.1185  -3.6880   6.1008   7.1940   7.1940   8.1344   8.1344
     8.2097   8.5104   9.6046   9.6046  11.5142  12.9258  12.9258  13.6133
    15.4481

          k = 0.3651 0.0000 0.0000 (  3042 PWs)   bands (ev):

   -53.5058 -27.3650 -27.3376 -27.3376 -22.1333  -7.4034  -6.0693  -6.0311
    -4.1134  -4.1134  -3.6439   5.9751   7.1964   7.1964   8.0409   8.0409
     8.0779   8.4473   9.5802   9.5802  11.5241  13.0567  13.0567  13.6142
    15.5939

          k = 0.3982 0.0000 0.0000 (  3042 PWs)   bands (ev):

   -53.5058 -27.3672 -27.3375 -27.3375 -22.1312  -7.4231  -6.0663  -6.0053
    -4.1092  -4.1092  -3.6086   5.8713   7.1998   7.1998   7.9644   7.9644
     7.9743   8.3962   9.5609   9.5609  11.5323  13.1625  13.1625  13.6149
    15.7098

          k = 0.4314 0.0000 0.0000 (  3034 PWs)   bands (ev):

   -53.5057 -27.3688 -27.3374 -27.3374 -22.1297  -7.4382  -6.0640  -5.9846
    -4.1061  -4.1061  -3.5828   5.7937   7.2035   7.2035   7.8996   7.9075
     7.9075   8.3586   9.5468   9.5468  11.5384  13.2403  13.2403  13.6154
    15.7938

          k = 0.4646 0.0000 0.0000 (  3042 PWs)   bands (ev):

   -53.5057 -27.3698 -27.3374 -27.3374 -22.1287  -7.4478  -6.0626  -5.9713
    -4.1042  -4.1042  -3.5672   5.7458   7.2064   7.2064   7.8546   7.8722
     7.8722   8.3357   9.5383   9.5383  11.5422  13.2880  13.2880  13.6158
    15.8447

          k = 0.4978 0.0000 0.0000 (  3026 PWs)   bands (ev):

   -53.5057 -27.3702 -27.3373 -27.3373 -22.1284  -7.4511  -6.0621  -5.9667
    -4.1035  -4.1035  -3.5619   5.7296   7.2075   7.2075   7.8395   7.8602
     7.8602   8.3280   9.5354   9.5354  11.5435  13.3040  13.3040  13.6159
    15.8617

          k = 0.4978 0.0332 0.0000 (  3028 PWs)   bands (ev):

   -53.5057 -27.3701 -27.3377 -27.3373 -22.1281  -7.4449  -6.0615  -5.9722
    -4.1028  -4.0992  -3.5651   5.7287   7.1987   7.2085   7.6339   7.8543
     8.0132   8.3894   9.5066   9.5125  11.5717  13.3035  13.3036  13.6456
    15.8769

          k = 0.4978 0.0664 0.0000 (  3018 PWs)   bands (ev):

   -53.5057 -27.3701 -27.3386 -27.3373 -22.1274  -7.4265  -6.0599  -5.9883
    -4.1006  -4.0868  -3.5744   5.7258   7.1713   7.2116   7.4015   7.8368
     8.1039   8.5566   9.4267   9.4480  11.6518  13.3026  13.3027  13.7282
    15.9231

          k = 0.4978 0.0996 0.0000 (  3024 PWs)   bands (ev):

   -53.5057 -27.3699 -27.3402 -27.3372 -22.1263  -7.3961  -6.0579  -6.0140
    -4.0972  -4.0670  -3.5893   5.7211   7.1223   7.1681   7.2166   7.8086
     8.1632   8.7714   9.3124   9.3521  11.7731  13.3012  13.3027  13.8471
    16.0020

          k = 0.4978 0.1327 0.0000 (  3026 PWs)   bands (ev):

   -53.5057 -27.3697 -27.3423 -27.3371 -22.1248  -7.3544  -6.0563  -6.0476
    -4.0925  -4.0412  -3.6087   5.7146   6.9407   7.0483   7.2237   7.7712
     8.2194   8.9955   9.1848   9.2360  11.9231  13.2992  13.3057  13.9822
    16.1149

          k = 0.4978 0.1659 0.0000 (  3024 PWs)   bands (ev):

   -53.5056 -27.3695 -27.3449 -27.3369 -22.1230  -7.3021  -6.0871  -6.0566
    -4.0869  -4.0110  -3.6313   5.7063   6.7235   6.9466   7.2326   7.7264
     8.2799   9.0630   9.1096   9.2137  12.0906  13.2971  13.3140  14.1153
    16.2610

          k = 0.4978 0.1991 0.0000 (  3036 PWs)   bands (ev):

   -53.5056 -27.3693 -27.3478 -27.3368 -22.1209  -7.2400  -6.1304  -6.0603
    -4.0805  -3.9780  -3.6556   5.6959   6.5194   6.8185   7.2434   7.6765
     8.3454   8.9604   8.9803   9.4184  12.2666  13.2949  13.3297  14.2344
    16.4360

          k = 0.4978 0.2323 0.0000 (  3028 PWs)   bands (ev):

   -53.5056 -27.3690 -27.3509 -27.3366 -22.1187  -7.1693  -6.1755  -6.0689
    -4.0737  -3.9438  -3.6801   5.6829   6.3309   6.6697   7.2558   7.6237
     8.4141   8.8534   8.8829   9.6046  12.4434  13.2927  13.3543  14.3339
    16.6317

          k = 0.4978 0.2655 0.0000 (  3028 PWs)   bands (ev):

   -53.5056 -27.3687 -27.3540 -27.3364 -22.1165  -7.0913  -6.2202  -6.0843
    -4.0667  -3.9101  -3.7033   5.6662   6.1599   6.5105   7.2696   7.5704
     8.4836   8.7328   8.8302   9.7689  12.6149  13.2907  13.3882  14.4132
    16.8370

          k = 0.4978 0.2987 0.0000 (  3038 PWs)   bands (ev):

   -53.5055 -27.3684 -27.3571 -27.3363 -22.1143  -7.0074  -6.2627  -6.1079
    -4.0598  -3.8780  -3.7239   5.6442   6.0081   6.3537   7.2844   7.5189
     8.5512   8.6217   8.7982   9.9093  12.7757  13.2889  13.4302  14.4744
    17.0403

          k = 0.4978 0.3319 0.0000 (  3046 PWs)   bands (ev):

   -53.5055 -27.3682 -27.3600 -27.3361 -22.1122  -6.9191  -6.3015  -6.1408
    -4.0534  -3.8488  -3.7412   5.6146   5.8770   6.2124   7.2998   7.4714
     8.5224   8.6142   8.7814  10.0250  12.9208  13.2874  13.4775  14.5206
    17.2306

          k = 0.4978 0.3651 0.0000 (  3052 PWs)   bands (ev):

   -53.5055 -27.3680 -27.3626 -27.3360 -22.1104  -6.8282  -6.3351  -6.1835
    -4.0476  -3.8236  -3.7547   5.5763   5.7680   6.0979   7.3148   7.4297
     8.4371   8.6697   8.7747  10.1165  13.0461  13.2863  13.5262  14.5545
    17.3985

          k = 0.4978 0.3982 0.0000 (  3064 PWs)   bands (ev):

   -53.5054 -27.3678 -27.3647 -27.3359 -22.1089  -6.7368  -6.3624  -6.2358
    -4.0429  -3.8031  -3.7644   5.5315   5.6820   6.0155   7.3284   7.3956
     8.3679   8.7156   8.7739  10.1852  13.1478  13.2853  13.5712  14.5787
    17.5364

          k = 0.4978 0.4314 0.0000 (  3056 PWs)   bands (ev):

   -53.5054 -27.3677 -27.3662 -27.3358 -22.1077  -6.6476  -6.3826  -6.2962
    -4.0393  -3.7880  -3.7709   5.4884   5.6200   5.9635   7.3395   7.3703
     8.3166   8.7498   8.7755  10.2326  13.2228  13.2847  13.6078  14.5948
    17.6388

          k = 0.4978 0.4646 0.0000 (  3040 PWs)   bands (ev):

   -53.5054 -27.3676 -27.3672 -27.3358 -22.1070  -6.5663  -6.3949  -6.3599
    -4.0371  -3.7787  -3.7745   5.4572   5.5826   5.9359   7.3469   7.3547
     8.2850   8.7710   8.7774  10.2603  13.2687  13.2843  13.6316  14.6040
    17.7016

          k = 0.4978 0.4978 0.0000 (  3048 PWs)   bands (ev):

   -53.5054 -27.3675 -27.3675 -27.3357 -22.1068  -6.5212  -6.3991  -6.3991
    -4.0364  -3.7756  -3.7756   5.4459   5.5700   5.9272   7.3494   7.3494
     8.2744   8.7781   8.7781  10.2694  13.2842  13.2842  13.6399  14.6070
    17.7228

          k = 0.4729 0.4729 0.0000 (  3040 PWs)   bands (ev):

   -53.5054 -27.3674 -27.3674 -27.3358 -22.1071  -6.5699  -6.3976  -6.3538
    -4.0372  -3.7777  -3.7757   5.4586   5.5843   5.9367   7.3452   7.3567
     8.2863   8.7682   8.7793  10.2593  13.2742  13.2769  13.6305  14.6037
    17.6990

          k = 0.4480 0.4480 0.0000 (  3064 PWs)   bands (ev):

   -53.5054 -27.3669 -27.3668 -27.3358 -22.1079  -6.6530  -6.3932  -6.2812
    -4.0397  -3.7840  -3.7760   5.4940   5.6296   5.9649   7.3334   7.3786
     8.3213   8.7397   8.7828  10.2292  13.2445  13.2550  13.6025  14.5936
    17.6284

          k = 0.4231 0.4231 0.0000 (  3052 PWs)   bands (ev):

   -53.5055 -27.3661 -27.3660 -27.3359 -22.1092  -6.7396  -6.3859  -6.2121
    -4.0438  -3.7944  -3.7762   5.5457   5.7105   6.0112   7.3160   7.4149
     8.3767   8.6970   8.7891  10.1809  13.1956  13.2186  13.5562  14.5766
    17.5136

          k = 0.3982 0.3982 0.0000 (  3060 PWs)   bands (ev):

   -53.5055 -27.3650 -27.3648 -27.3360 -22.1110  -6.8239  -6.3759  -6.1525
    -4.0493  -3.8087  -3.7762   5.6092   5.8291   6.0745   7.2957   7.4653
     8.4494   8.6463   8.7986  10.1165  13.1289  13.1679  13.4925  14.5526
    17.3583

          k = 0.3734 0.3734 0.0000 (  3038 PWs)   bands (ev):

   -53.5055 -27.3636 -27.3634 -27.3362 -22.1133  -6.9030  -6.3632  -6.1051
    -4.0561  -3.8266  -3.7762   5.6839   5.9829   6.1532   7.2747   7.5296
     8.5362   8.5955   8.8121  10.0392  13.0457  13.1031  13.4125  14.5214
    17.1671

          k = 0.3485 0.3485 0.0000 (  3035 PWs)   bands (ev):

   -53.5055 -27.3620 -27.3617 -27.3364 -22.1161  -6.9752  -6.3480  -6.0708
    -4.0641  -3.8477  -3.7769   5.7695   6.1679   6.2452   7.2548   7.6072
     8.5525   8.6341   8.8305   9.9526  12.9479  13.0245  13.3174  14.4828
    16.9449

          k = 0.3236 0.3236 0.0000 (  3037 PWs)   bands (ev):

   -53.5056 -27.3602 -27.3597 -27.3366 -22.1192  -7.0394  -6.3306  -6.0493
    -4.0729  -3.8717  -3.7796   5.8660   6.3480   6.3796   7.2373   7.6976
     8.5250   8.7406   8.8547   9.8608  12.8374  12.9327  13.2088  14.4367
    16.6965

          k = 0.2987 0.2987 0.0000 (  3037 PWs)   bands (ev):

   -53.5056 -27.3582 -27.3577 -27.3368 -22.1227  -7.0950  -6.3112  -6.0395
    -4.0823  -3.8981  -3.7858   5.9726   6.4583   6.6138   7.2227   7.8000
     8.5198   8.8535   8.8859   9.7681  12.7166  12.8283  13.0884  14.3831
    16.4269

          k = 0.2738 0.2738 0.0000 (  3033 PWs)   bands (ev):

   -53.5057 -27.3560 -27.3555 -27.3371 -22.1265  -7.1417  -6.2902  -6.0393
    -4.0921  -3.9264  -3.7974   6.0882   6.5724   6.8658   7.2115   7.9133
     8.5421   8.9250   8.9707   9.6792  12.5876  12.7121  12.9577  14.3222
    16.1409

          k = 0.2489 0.2489 0.0000 (  3031 PWs)   bands (ev):

   -53.5057 -27.3538 -27.3533 -27.3373 -22.1305  -7.1796  -6.2679  -6.0462
    -4.1020  -3.9559  -3.8158   6.2116   6.6861   7.1308   7.2036   8.0365
     8.5953   8.9722   9.0906   9.5990  12.4528  12.5854  12.8180  14.2544
    15.8432

          k = 0.2240 0.2240 0.0000 (  3023 PWs)   bands (ev):

   -53.5058 -27.3516 -27.3510 -27.3376 -22.1346  -7.2095  -6.2450  -6.0574
    -4.1119  -3.9861  -3.8421   6.3413   6.7949   7.1988   7.4035   8.1681
     8.6809   9.0262   9.2113   9.5337  12.3147  12.4496  12.6707  14.1803
    15.5389

          k = 0.1991 0.1991 0.0000 (  3023 PWs)   bands (ev):

   -53.5058 -27.3494 -27.3488 -27.3378 -22.1387  -7.2320  -6.2218  -6.0704
    -4.1213  -4.0162  -3.8763   6.4751   6.8947   7.1968   7.6784   8.3061
     8.7980   9.0819   9.3312   9.4915  12.1757  12.3067  12.5167  14.1010
    15.2331

          k = 0.1742 0.1742 0.0000 (  3035 PWs)   bands (ev):

   -53.5059 -27.3472 -27.3468 -27.3381 -22.1426  -7.2483  -6.1990  -6.0830
    -4.1302  -4.0455  -3.9173   6.6102   6.9818   7.1970   7.9496   8.4481
     8.9438   9.1285   9.4487   9.4850  12.0385  12.1594  12.3569  14.0181
    14.9312

          k = 0.1493 0.1493 0.0000 (  3041 PWs)   bands (ev):

   -53.5059 -27.3452 -27.3449 -27.3383 -22.1464  -7.2596  -6.1772  -6.0935
    -4.1384  -4.0732  -3.9634   6.7431   7.0540   7.1989   8.2113   8.5910
     9.1129   9.1542   9.5245   9.5617  11.9058  12.0110  12.1926  13.9336
    14.6397

          k = 0.1245 0.1245 0.0000 (  3029 PWs)   bands (ev):

   -53.5059 -27.3434 -27.3432 -27.3385 -22.1497  -7.2670  -6.1572  -6.1010
    -4.1455  -4.0984  -4.0117   6.8691   7.1106   7.2018   8.4573   8.7309
     9.1609   9.2974   9.6033   9.6681  11.7809  11.8657  12.0257  13.8505
    14.3657

          k = 0.0996 0.0996 0.0000 (  3027 PWs)   bands (ev):

   -53.5060 -27.3419 -27.3417 -27.3387 -22.1527  -7.2716  -6.1396  -6.1052
    -4.1516  -4.1204  -4.0588   6.9829   7.1525   7.2052   8.6805   8.8622
     9.1592   9.4867   9.7025   9.7649  11.6676  11.7293  11.8599  13.7723
    14.1177

          k = 0.0747 0.0747 0.0000 (  3021 PWs)   bands (ev):

   -53.5060 -27.3407 -27.3405 -27.3388 -22.1551  -7.2744  -6.1251  -6.1067
    -4.1565  -4.1384  -4.1008   7.0790   7.1817   7.2086   8.8725   8.9784
     9.1562   9.6672   9.8037   9.8485  11.5702  11.6089  11.7018  13.7036
    13.9061

          k = 0.0498 0.0498 0.0000 (  3013 PWs)   bands (ev):

   -53.5060 -27.3397 -27.3397 -27.3389 -22.1568  -7.2759  -6.1143  -6.1065
    -4.1600  -4.1518  -4.1341   7.1522   7.2003   7.2113   9.0226   9.0710
     9.1540   9.8224   9.8909   9.9140  11.4943  11.5130  11.5639  13.6492
    13.7424

          k = 0.0249 0.0249 0.0000 (  3003 PWs)   bands (ev):

   -53.5060 -27.3392 -27.3391 -27.3390 -22.1579  -7.2767  -6.1076  -6.1057
    -4.1622  -4.1601  -4.1555   7.1981   7.2105   7.2131   9.1192   9.1315
     9.1529   9.9312   9.9501   9.9564  11.4455  11.4504  11.4652  13.6142
    13.6380

          k = 0.0000 0.0000 0.0000 (  2969 PWs)   bands (ev):

   -53.5060 -27.3390 -27.3390 -27.3390 -22.1583  -7.2769  -6.1053  -6.1053
    -4.1629  -4.1629  -4.1629   7.2138   7.2138   7.2138   9.1526   9.1526
     9.1526   9.9711   9.9711   9.9711  11.4286  11.4286  11.4286  13.6020
    13.6020

     Writing all to output data dir ./QE_tmp/svo.save/

     init_run     :      0.67s CPU      0.82s WALL (       1 calls)
     electrons    :     36.61s CPU     37.01s WALL (       1 calls)

     Called by init_run:
     wfcinit      :      0.00s CPU      0.00s WALL (       1 calls)
     potinit      :      0.16s CPU      0.17s WALL (       1 calls)
     hinit0       :      0.35s CPU      0.36s WALL (       1 calls)

     Called by electrons:
     c_bands      :     36.61s CPU     37.01s WALL (       1 calls)
     v_of_rho     :      0.03s CPU      0.04s WALL (       1 calls)
     newd         :      0.11s CPU      0.24s WALL (       1 calls)

     Called by c_bands:
     init_us_2    :      0.02s CPU      0.03s WALL (      71 calls)
     init_us_2:cp :      0.02s CPU      0.03s WALL (      71 calls)
     cegterg      :     35.00s CPU     35.36s WALL (     154 calls)

     Called by *egterg:
     cdiaghg      :      3.11s CPU      3.13s WALL (    2683 calls)
     h_psi        :     25.37s CPU     25.68s WALL (    2837 calls)
     s_psi        :      1.21s CPU      1.22s WALL (    2837 calls)
     g_psi        :      0.25s CPU      0.25s WALL (    2612 calls)

     Called by h_psi:
     h_psi:calbec :      1.68s CPU      1.69s WALL (    2837 calls)
     vloc_psi     :     22.38s CPU     22.66s WALL (    2837 calls)
     add_vuspsi   :      1.23s CPU      1.24s WALL (    2837 calls)

     General routines
     calbec       :      1.67s CPU      1.69s WALL (    2837 calls)
     fft          :      0.16s CPU      0.16s WALL (      13 calls)
     ffts         :      0.13s CPU      0.13s WALL (       1 calls)
     fftw         :     18.85s CPU     19.08s WALL (   92378 calls)
     interpolate  :      0.13s CPU      0.13s WALL (       1 calls)
     davcio       :      0.02s CPU      0.03s WALL (     142 calls)

     Parallel routines

     PWSCF        :     37.66s CPU     38.30s WALL


   This run was terminated on:  20:22: 0  16Jun2025            

=------------------------------------------------------------------------------=
   JOB DONE.
=------------------------------------------------------------------------------=
