
     Program PWSCF v.7.2 starts on 16Jun2025 at 20:20:49 

     This program is part of the open-source Quantum ESPRESSO suite
     for quantum simulation of materials; please cite
         "P. Giannozzi et al., J. Phys.:Condens. Matter 21 395502 (2009);
         "P. Giannozzi et al., J. Phys.:Condens. Matter 29 465901 (2017);
         "P. Giannozzi et al., J. Chem. Phys. 152 154105 (2020);
          URL http://www.quantum-espresso.org", 
     in publications or presentations arising from this work. More details at
     http://www.quantum-espresso.org/quote

     Parallel version (MPI & OpenMP), running on       4 processor cores
     Number of MPI processes:                 4
     Threads/MPI process:                     1

     MPI processes distributed on     1 nodes
     8540 MiB available memory on the printing compute node when the environment starts

     Reading input from svo.scf.in

     Current dimensions of program PWSCF are:
     Max number of different atomic species (ntypx) = 10
     Max number of k-points (npk) =  40000
     Max angular momentum in pseudopotentials (lmaxx) =  4
     Message from routine setup:
     using ibrav=0 with symmetry is DISCOURAGED, use correct ibrav instead

     R & G space division:  proc/nbgrp/npool/nimage =       4
     Subspace diagonalization in iterative solution of the eigenvalue problem:
     a serial algorithm will be used


     Parallelization info
     --------------------
     sticks:   dense  smooth     PW     G-vecs:    dense   smooth      PW
     Min         765     251     73                31640     6075     947
     Max         766     252     74                31641     6078     950
     Sum        3061    1005    293               126563    24303    3791

     Using Slab Decomposition



     bravais-lattice index     =            0
     lattice parameter (alat)  =       7.2612  a.u.
     unit-cell volume          =     387.9249 (a.u.)^3
     number of atoms/cell      =            5
     number of atomic types    =            3
     number of electrons       =        41.00
     number of Kohn-Sham states=           25
     kinetic-energy cutoff     =      60.0000  Ry
     charge density cutoff     =     720.0000  Ry
     scf convergence threshold =      1.0E-10
     mixing beta               =       0.1000
     number of iterations used =            8  local-TF  mixing
     Exchange-correlation= SLA  PW   PBE  PBE
                           (   1   4   3   4   0   0   0)

     celldm(1)=   7.261200  celldm(2)=   0.000000  celldm(3)=   0.000000
     celldm(4)=   0.000000  celldm(5)=   0.000000  celldm(6)=   0.000000

     crystal axes: (cart. coord. in units of alat)
               a(1) = (   1.004402   0.000000   0.000000 )  
               a(2) = (   0.000000   1.004402   0.000000 )  
               a(3) = (   0.000000   0.000000   1.004402 )  

     reciprocal axes: (cart. coord. in units 2 pi/alat)
               b(1) = (  0.995617  0.000000  0.000000 )  
               b(2) = (  0.000000  0.995617  0.000000 )  
               b(3) = (  0.000000  0.000000  0.995617 )  


     PseudoPot. # 1 for Sr read from file:
     ./pseudo/sr_pbe_v1.uspp.F.UPF
     MD5 check sum: 6b418c05fbe9db5448babca5e47b7a5b
     Pseudo is Ultrasoft + core correction, Zval = 10.0
     Generated by new atomic code, or converted to UPF format
     Using radial grid of  883 points,  6 beta functions with: 
                l(1) =   0
                l(2) =   0
                l(3) =   1
                l(4) =   1
                l(5) =   2
                l(6) =   2
     Q(r) pseudized with  6 coefficients,  rinner =    1.400   1.400   1.400
                                                       1.400   1.400

     PseudoPot. # 2 for V  read from file:
     ./pseudo/v_pbe_v1.4.uspp.F.UPF
     MD5 check sum: 22b79981416ebb76fdaf5b1b8640f6fb
     Pseudo is Ultrasoft + core correction, Zval = 13.0
     Generated by new atomic code, or converted to UPF format
     Using radial grid of  853 points,  6 beta functions with: 
                l(1) =   0
                l(2) =   0
                l(3) =   1
                l(4) =   1
                l(5) =   2
                l(6) =   2
     Q(r) pseudized with  8 coefficients,  rinner =    1.100   1.100   1.100
                                                       1.100   1.100

     PseudoPot. # 3 for O  read from file:
     ./pseudo/o_pbe_v1.2.uspp.F.UPF
     MD5 check sum: 734c27235a0248c51dbae37a1fbe46ec
     Pseudo is Ultrasoft + core correction, Zval =  6.0
     Generated by new atomic code, or converted to UPF format
     Using radial grid of  737 points,  5 beta functions with: 
                l(1) =   0
                l(2) =   0
                l(3) =   1
                l(4) =   1
                l(5) =   2
     Q(r) pseudized with  8 coefficients,  rinner =    0.900   0.900   0.900
                                                       0.900   0.900

     atomic species   valence    mass     pseudopotential
        Sr            10.00    87.62000     Sr( 1.00)
        V             13.00    50.94150     V ( 1.00)
        O              6.00    15.99940     O ( 1.00)

     48 Sym. Ops., with inversion, found



   Cartesian axes

     site n.     atom                  positions (alat units)
         1           Sr  tau(   1) = (   0.0000000   0.0000000   0.0000000  )
         2           V   tau(   2) = (   0.5022009   0.5022009   0.5022009  )
         3           O   tau(   3) = (   0.5022009   0.5022009   0.0000000  )
         4           O   tau(   4) = (   0.5022009   0.0000000   0.5022009  )
         5           O   tau(   5) = (   0.0000000   0.5022009   0.5022009  )

     number of k points=    10  Methfessel-Paxton smearing, width (Ry)=  0.0200
                       cart. coord. in units 2pi/alat
        k(    1) = (   0.0000000   0.0000000   0.0000000), wk =   0.0160000
        k(    2) = (   0.0000000   0.0000000   0.1991235), wk =   0.0960000
        k(    3) = (   0.0000000   0.0000000   0.3982470), wk =   0.0960000
        k(    4) = (   0.0000000   0.1991235   0.1991235), wk =   0.1920000
        k(    5) = (   0.0000000   0.1991235   0.3982470), wk =   0.3840000
        k(    6) = (   0.0000000   0.3982470   0.3982470), wk =   0.1920000
        k(    7) = (   0.1991235   0.1991235   0.1991235), wk =   0.1280000
        k(    8) = (   0.1991235   0.1991235   0.3982470), wk =   0.3840000
        k(    9) = (   0.1991235   0.3982470   0.3982470), wk =   0.3840000
        k(   10) = (   0.3982470   0.3982470   0.3982470), wk =   0.1280000

     Dense  grid:   126563 G-vectors     FFT dimensions: (  64,  64,  64)

     Smooth grid:    24303 G-vectors     FFT dimensions: (  36,  36,  36)

     Estimated max dynamical RAM per process >     126.96 MB

     Estimated total dynamical RAM >     507.83 MB

     Check: negative core charge=   -0.000002

     Initial potential from superposition of free atoms

     starting charge      40.9651, renormalised to      41.0000

     negative rho (up, down):  6.379E-02 0.000E+00
     Starting wfcs are   35 randomized atomic wfcs

     total cpu time spent up to now is        1.3 secs

     per-process dynamical memory:    54.2 Mb

     Self-consistent Calculation

     iteration #  1     ecut=    60.00 Ry     beta= 0.10
     Davidson diagonalization with overlap
     ethr =  1.00E-02,  avg # of iterations =  2.0

     negative rho (up, down):  6.376E-02 0.000E+00

     total cpu time spent up to now is        2.5 secs

     total energy              =    -313.01275664 Ry
     estimated scf accuracy    <       1.96704977 Ry

     iteration #  2     ecut=    60.00 Ry     beta= 0.10
     Davidson diagonalization with overlap
     ethr =  4.80E-03,  avg # of iterations =  1.0

     negative rho (up, down):  6.353E-02 0.000E+00

     total cpu time spent up to now is        3.6 secs

     total energy              =    -312.43830047 Ry
     estimated scf accuracy    <       1.44266212 Ry

     iteration #  3     ecut=    60.00 Ry     beta= 0.10
     Davidson diagonalization with overlap
     ethr =  3.52E-03,  avg # of iterations =  2.0

     negative rho (up, down):  6.356E-02 0.000E+00

     total cpu time spent up to now is        5.0 secs

     total energy              =    -312.71405709 Ry
     estimated scf accuracy    <       0.17947621 Ry

     iteration #  4     ecut=    60.00 Ry     beta= 0.10
     Davidson diagonalization with overlap
     ethr =  4.38E-04,  avg # of iterations =  1.1

     negative rho (up, down):  6.423E-02 0.000E+00

     total cpu time spent up to now is        6.2 secs

     total energy              =    -312.68805189 Ry
     estimated scf accuracy    <       0.09400263 Ry

     iteration #  5     ecut=    60.00 Ry     beta= 0.10
     Davidson diagonalization with overlap
     ethr =  2.29E-04,  avg # of iterations =  2.0

     negative rho (up, down):  6.468E-02 0.000E+00

     total cpu time spent up to now is        7.4 secs

     total energy              =    -312.68302448 Ry
     estimated scf accuracy    <       0.14127385 Ry

     iteration #  6     ecut=    60.00 Ry     beta= 0.10
     Davidson diagonalization with overlap
     ethr =  2.29E-04,  avg # of iterations =  1.7

     negative rho (up, down):  6.556E-02 0.000E+00

     total cpu time spent up to now is        8.5 secs

     total energy              =    -312.69262838 Ry
     estimated scf accuracy    <       0.01467039 Ry

     iteration #  7     ecut=    60.00 Ry     beta= 0.10
     Davidson diagonalization with overlap
     ethr =  3.58E-05,  avg # of iterations =  1.9

     negative rho (up, down):  6.698E-02 0.000E+00

     total cpu time spent up to now is        9.6 secs

     total energy              =    -312.68711597 Ry
     estimated scf accuracy    <       0.02004345 Ry

     iteration #  8     ecut=    60.00 Ry     beta= 0.10
     Davidson diagonalization with overlap
     ethr =  3.58E-05,  avg # of iterations =  2.0

     negative rho (up, down):  6.697E-02 0.000E+00

     total cpu time spent up to now is       10.7 secs

     total energy              =    -312.69015521 Ry
     estimated scf accuracy    <       0.00004001 Ry

     iteration #  9     ecut=    60.00 Ry     beta= 0.10
     Davidson diagonalization with overlap
     ethr =  9.76E-08,  avg # of iterations =  5.2

     negative rho (up, down):  6.696E-02 0.000E+00

     total cpu time spent up to now is       12.9 secs

     total energy              =    -312.69031371 Ry
     estimated scf accuracy    <       0.00010003 Ry

     iteration # 10     ecut=    60.00 Ry     beta= 0.10
     Davidson diagonalization with overlap
     ethr =  9.76E-08,  avg # of iterations =  2.9

     negative rho (up, down):  6.720E-02 0.000E+00

     total cpu time spent up to now is       14.4 secs

     total energy              =    -312.69021526 Ry
     estimated scf accuracy    <       0.00046757 Ry

     iteration # 11     ecut=    60.00 Ry     beta= 0.10
     Davidson diagonalization with overlap
     ethr =  9.76E-08,  avg # of iterations =  3.2

     negative rho (up, down):  6.717E-02 0.000E+00

     total cpu time spent up to now is       16.0 secs

     total energy              =    -312.69030963 Ry
     estimated scf accuracy    <       0.00000573 Ry

     iteration # 12     ecut=    60.00 Ry     beta= 0.10
     Davidson diagonalization with overlap
     ethr =  1.40E-08,  avg # of iterations =  2.0

     negative rho (up, down):  6.711E-02 0.000E+00

     total cpu time spent up to now is       17.3 secs

     total energy              =    -312.69032976 Ry
     estimated scf accuracy    <       0.00000273 Ry

     iteration # 13     ecut=    60.00 Ry     beta= 0.10
     Davidson diagonalization with overlap
     ethr =  6.66E-09,  avg # of iterations =  3.2

     negative rho (up, down):  6.710E-02 0.000E+00

     total cpu time spent up to now is       18.5 secs

     total energy              =    -312.69034273 Ry
     estimated scf accuracy    <       0.00001007 Ry

     iteration # 14     ecut=    60.00 Ry     beta= 0.10
     Davidson diagonalization with overlap
     ethr =  6.66E-09,  avg # of iterations =  2.0

     negative rho (up, down):  6.711E-02 0.000E+00

     total cpu time spent up to now is       19.8 secs

     total energy              =    -312.69035404 Ry
     estimated scf accuracy    <       0.00000178 Ry

     iteration # 15     ecut=    60.00 Ry     beta= 0.10
     Davidson diagonalization with overlap
     ethr =  4.34E-09,  avg # of iterations =  1.5

     negative rho (up, down):  6.712E-02 0.000E+00

     total cpu time spent up to now is       21.0 secs

     total energy              =    -312.69036300 Ry
     estimated scf accuracy    <       0.00000028 Ry

     iteration # 16     ecut=    60.00 Ry     beta= 0.10
     Davidson diagonalization with overlap
     ethr =  6.71E-10,  avg # of iterations =  3.1

     negative rho (up, down):  6.712E-02 0.000E+00

     total cpu time spent up to now is       22.8 secs

     total energy              =    -312.69037051 Ry
     estimated scf accuracy    <       0.00000002 Ry

     iteration # 17     ecut=    60.00 Ry     beta= 0.10
     Davidson diagonalization with overlap
     ethr =  5.04E-11,  avg # of iterations =  2.1

     negative rho (up, down):  6.712E-02 0.000E+00

     total cpu time spent up to now is       24.1 secs

     total energy              =    -312.69037649 Ry
     estimated scf accuracy    <          1.9E-09 Ry

     iteration # 18     ecut=    60.00 Ry     beta= 0.10
     Davidson diagonalization with overlap
     ethr =  4.56E-12,  avg # of iterations =  2.6

     negative rho (up, down):  6.712E-02 0.000E+00

     total cpu time spent up to now is       25.7 secs

     total energy              =    -312.69038135 Ry
     estimated scf accuracy    <          2.3E-09 Ry

     iteration # 19     ecut=    60.00 Ry     beta= 0.10
     Davidson diagonalization with overlap
     ethr =  4.56E-12,  avg # of iterations =  2.0

     negative rho (up, down):  6.712E-02 0.000E+00

     total cpu time spent up to now is       27.1 secs

     total energy              =    -312.69038528 Ry
     estimated scf accuracy    <          1.5E-09 Ry

     iteration # 20     ecut=    60.00 Ry     beta= 0.10
     Davidson diagonalization with overlap
     ethr =  3.61E-12,  avg # of iterations =  2.0

     negative rho (up, down):  6.712E-02 0.000E+00

     total cpu time spent up to now is       28.3 secs

     total energy              =    -312.69038846 Ry
     estimated scf accuracy    <          1.5E-10 Ry

     iteration # 21     ecut=    60.00 Ry     beta= 0.10
     Davidson diagonalization with overlap
     ethr =  3.58E-13,  avg # of iterations =  3.6

     negative rho (up, down):  6.712E-02 0.000E+00

     total cpu time spent up to now is       29.5 secs

     End of self-consistent calculation

          k = 0.0000 0.0000 0.0000 (  2969 PWs)   bands (ev):

   -53.5060 -27.3390 -27.3390 -27.3390 -22.1583  -7.2769  -6.1053  -6.1053
    -4.1629  -4.1629  -4.1629   7.2138   7.2138   7.2138   9.1526   9.1526
     9.1526   9.9711   9.9711   9.9711  11.4286  11.4286  11.4286  13.6020
    13.6020

          k = 0.0000 0.0000 0.1991 (  3022 PWs)   bands (ev):

   -53.5059 -27.3498 -27.3384 -27.3384 -22.1480  -7.2979  -6.1378  -6.0905
    -4.1426  -4.1426  -3.9221   6.7019   7.1988   7.1988   8.6244   8.6244
     8.8356   8.9745   9.7439   9.7439  11.4676  12.2321  12.2321  13.6082
    14.6280

          k = 0.0000 0.0000 0.3982 (  3042 PWs)   bands (ev):

   -53.5058 -27.3672 -27.3375 -27.3375 -22.1312  -7.4230  -6.0663  -6.0053
    -4.1092  -4.1092  -3.6086   5.8713   7.1998   7.1998   7.9645   7.9645
     7.9743   8.3962   9.5609   9.5609  11.5323  13.1625  13.1625  13.6149
    15.7098

          k = 0.0000 0.1991 0.1991 (  3023 PWs)   bands (ev):

   -53.5058 -27.3494 -27.3488 -27.3378 -22.1387  -7.2320  -6.2218  -6.0704
    -4.1213  -4.0162  -3.8762   6.4751   6.8947   7.1968   7.6784   8.3061
     8.7980   9.0819   9.3312   9.4915  12.1757  12.3067  12.5167  14.1010
    15.2331

          k = 0.0000 0.1991 0.3982 (  3028 PWs)   bands (ev):

   -53.5056 -27.3663 -27.3480 -27.3369 -22.1235  -7.2279  -6.1781  -6.0442
    -4.0865  -3.9794  -3.6882   5.8254   6.5975   6.8861   7.2258   7.7747
     8.3898   8.9770   9.0184   9.4468  12.2610  13.1564  13.2001  14.2281
    16.2808

          k = 0.0000 0.3982 0.3982 (  3060 PWs)   bands (ev):

   -53.5055 -27.3650 -27.3648 -27.3360 -22.1110  -6.8239  -6.3759  -6.1525
    -4.0493  -3.8087  -3.7762   5.6093   5.8291   6.0745   7.2957   7.4653
     8.4494   8.6464   8.7986  10.1165  13.1289  13.1679  13.4926  14.5526
    17.3583

          k = 0.1991 0.1991 0.1991 (  3058 PWs)   bands (ev):

   -53.5057 -27.3489 -27.3483 -27.3483 -22.1300  -7.1282  -6.1574  -6.1574
    -4.0843  -4.0843  -3.7863   6.2602   6.9036   6.9036   7.6580   7.6580
     7.9490   9.3617   9.3617   9.5382  12.4952  12.6032  12.6032  15.2263
    15.2263

          k = 0.1991 0.1991 0.3982 (  3029 PWs)   bands (ev):

   -53.5055 -27.3655 -27.3475 -27.3473 -22.1159  -7.0362  -6.1829  -6.0422
    -4.2067  -3.9292  -3.7602   5.7919   6.4720   6.8641   6.9374   7.1011
     7.9103   9.2514   9.2918   9.5617  12.6390  13.2302  13.2615  15.2004
    16.4800

          k = 0.1991 0.3982 0.3982 (  3060 PWs)   bands (ev):

   -53.5054 -27.3643 -27.3642 -27.3464 -22.1035  -6.6395  -6.2526  -6.0696
    -4.2219  -3.9978  -3.8763   5.6233   6.0707   6.0825   6.8669   7.0238
     7.3451   9.3534   9.4335  10.1383  13.2978  13.3307  13.5627  15.7445
    17.3480

          k = 0.3982 0.3982 0.3982 (  3043 PWs)   bands (ev):

   -53.5052 -27.3632 -27.3631 -27.3631 -22.0913  -6.2600  -5.9994  -5.9994
    -4.3555  -4.3555  -4.1665   5.4856   6.0974   6.0974   6.4213   6.6198
     6.6198  10.0711  10.0711  10.2299  13.6690  13.6903  13.6903  17.2914
    17.2914

     the Fermi energy is    12.3481 ev

!    total energy              =    -312.69040201 Ry
     estimated scf accuracy    <          2.7E-12 Ry
     smearing contrib. (-TS)   =      -0.00115712 Ry
     internal energy E=F+TS    =    -312.68924489 Ry

     The total energy is F=E-TS. E is the sum of the following terms:
     one-electron contribution =     -96.94364135 Ry
     hartree contribution      =      71.63376241 Ry
     xc contribution           =     -59.96180457 Ry
     ewald contribution        =    -227.41756138 Ry

     convergence has been achieved in  21 iterations

     negative rho (up, down):  6.712E-02 0.000E+00

     Forces acting on atoms (cartesian axes, Ry/au):

     atom    1 type  1   force =     0.00000000    0.00000000    0.00000000
     atom    2 type  2   force =     0.00000000    0.00000000    0.00000000
     atom    3 type  3   force =     0.00000000    0.00000000    0.00000000
     atom    4 type  3   force =     0.00000000    0.00000000    0.00000000
     atom    5 type  3   force =     0.00000000    0.00000000    0.00000000
     The non-local contrib.  to forces
     atom    1 type  1   force =     0.00000000    0.00000000    0.00000000
     atom    2 type  2   force =     0.00000000    0.00000000    0.00000000
     atom    3 type  3   force =     0.00000000    0.00000000    0.00000000
     atom    4 type  3   force =     0.00000000    0.00000000    0.00000000
     atom    5 type  3   force =     0.00000000    0.00000000    0.00000000
     The ionic contribution  to forces
     atom    1 type  1   force =    -0.00000000   -0.00000000   -0.00000000
     atom    2 type  2   force =     0.00000000    0.00000000    0.00000000
     atom    3 type  3   force =     0.00000000    0.00000000   -0.00000000
     atom    4 type  3   force =     0.00000000   -0.00000000    0.00000000
     atom    5 type  3   force =    -0.00000000    0.00000000    0.00000000
     The local contribution  to forces
     atom    1 type  1   force =     0.00000000   -0.00000000    0.00000000
     atom    2 type  2   force =     0.00000000    0.00000000    0.00000000
     atom    3 type  3   force =     0.00000000    0.00000000   -0.00000000
     atom    4 type  3   force =     0.00000000    0.00000000    0.00000000
     atom    5 type  3   force =     0.00000000    0.00000000    0.00000000
     The core correction contribution to forces
     atom    1 type  1   force =    -0.00000000    0.00000000    0.00000000
     atom    2 type  2   force =    -0.00000000   -0.00000000    0.00000000
     atom    3 type  3   force =     0.00000000    0.00000000    0.00000000
     atom    4 type  3   force =    -0.00000000   -0.00000000    0.00000000
     atom    5 type  3   force =     0.00000000    0.00000000    0.00000000
     The Hubbard contrib.    to forces
     atom    1 type  1   force =     0.00000000    0.00000000    0.00000000
     atom    2 type  2   force =     0.00000000    0.00000000    0.00000000
     atom    3 type  3   force =     0.00000000    0.00000000    0.00000000
     atom    4 type  3   force =     0.00000000    0.00000000    0.00000000
     atom    5 type  3   force =     0.00000000    0.00000000    0.00000000
     The SCF correction term to forces
     atom    1 type  1   force =     0.00000000    0.00000000   -0.00000000
     atom    2 type  2   force =     0.00000000    0.00000000    0.00000000
     atom    3 type  3   force =    -0.00000000   -0.00000000    0.00000000
     atom    4 type  3   force =    -0.00000000    0.00000000    0.00000000
     atom    5 type  3   force =     0.00000000   -0.00000000    0.00000000

     Total force =     0.000000     Total SCF correction =     0.000000


     Computing stress (Cartesian axis) and pressure


     negative rho (up, down):  6.712E-02 0.000E+00
          total   stress  (Ry/bohr**3)                   (kbar)     P=        1.99
   0.00001352   0.00000000   0.00000000            1.99        0.00        0.00
   0.00000000   0.00001352   0.00000000            0.00        1.99        0.00
   0.00000000   0.00000000   0.00001352            0.00        0.00        1.99


     Writing all to output data dir ./QE_tmp/svo.save/

     init_run     :      0.89s CPU      1.04s WALL (       1 calls)
     electrons    :     22.83s CPU     28.18s WALL (       1 calls)
     forces       :      0.27s CPU      0.39s WALL (       1 calls)
     stress       :      1.91s CPU      2.30s WALL (       1 calls)

     Called by init_run:
     wfcinit      :      0.21s CPU      0.22s WALL (       1 calls)
     potinit      :      0.18s CPU      0.19s WALL (       1 calls)
     hinit0       :      0.34s CPU      0.35s WALL (       1 calls)

     Called by electrons:
     c_bands      :     13.34s CPU     13.44s WALL (      21 calls)
     sum_band     :      6.13s CPU      8.82s WALL (      21 calls)
     v_of_rho     :      0.69s CPU      0.70s WALL (      22 calls)
     newd         :      2.50s CPU      5.18s WALL (      22 calls)
     mix_rho      :      0.26s CPU      0.26s WALL (      21 calls)

     Called by c_bands:
     init_us_2    :      0.17s CPU      0.18s WALL (     450 calls)
     init_us_2:cp :      0.17s CPU      0.18s WALL (     450 calls)
     cegterg      :     12.76s CPU     12.86s WALL (     210 calls)

     Called by *egterg:
     cdiaghg      :      0.58s CPU      0.59s WALL (     701 calls)
     h_psi        :      9.93s CPU     10.02s WALL (     711 calls)
     s_psi        :      0.34s CPU      0.34s WALL (     711 calls)
     g_psi        :      0.05s CPU      0.05s WALL (     491 calls)

     Called by h_psi:
     h_psi:calbec :      0.67s CPU      0.68s WALL (     711 calls)
     vloc_psi     :      8.89s CPU      8.98s WALL (     711 calls)
     add_vuspsi   :      0.34s CPU      0.34s WALL (     711 calls)

     General routines
     calbec       :      0.89s CPU      0.90s WALL (     971 calls)
     fft          :      0.49s CPU      0.50s WALL (     309 calls)
     ffts         :      0.23s CPU      0.23s WALL (     507 calls)
     fftw         :      8.99s CPU      9.07s WALL (   31526 calls)
     interpolate  :      0.15s CPU      0.16s WALL (      22 calls)

     Parallel routines

     PWSCF        :     26.16s CPU     32.22s WALL


   This run was terminated on:  20:21:21  16Jun2025            

=------------------------------------------------------------------------------=
   JOB DONE.
=------------------------------------------------------------------------------=
