
     Program PWSCF v.7.2 starts on 16Jun2025 at 21:17:49 

     This program is part of the open-source Quantum ESPRESSO suite
     for quantum simulation of materials; please cite
         "P. Giannozzi et al., J. Phys.:Condens. Matter 21 395502 (2009);
         "P. Giannozzi et al., J. Phys.:Condens. Matter 29 465901 (2017);
         "P. Giannozzi et al., J. Chem. Phys. 152 154105 (2020);
          URL http://www.quantum-espresso.org", 
     in publications or presentations arising from this work. More details at
     http://www.quantum-espresso.org/quote

     Parallel version (MPI & OpenMP), running on       8 processor cores
     Number of MPI processes:                 8
     Threads/MPI process:                     1

     MPI processes distributed on     1 nodes
     8170 MiB available memory on the printing compute node when the environment starts

     Reading input from sro.vc-relax.in

     Current dimensions of program PWSCF are:
     Max number of different atomic species (ntypx) = 10
     Max number of k-points (npk) =  40000
     Max angular momentum in pseudopotentials (lmaxx) =  4
     file O.pbesol-n-kjpaw_psl.0.1.UPF: wavefunction(s)  2P renormalized
     Message from routine setup:
     using ibrav=0 with symmetry is DISCOURAGED, use correct ibrav instead

     R & G space division:  proc/nbgrp/npool/nimage =       8
     Subspace diagonalization in iterative solution of the eigenvalue problem:
     a serial algorithm will be used


     Parallelization info
     --------------------
     sticks:   dense  smooth     PW     G-vecs:    dense   smooth      PW
     Min         382     126     36                15894     3048     484
     Max         383     127     37                15897     3052     487
     Sum        3061    1009    293               127171    24405    3887

     Using Slab Decomposition



     bravais-lattice index     =            0
     lattice parameter (alat)  =       7.3045  a.u.
     unit-cell volume          =     389.7372 (a.u.)^3
     number of atoms/cell      =            5
     number of atomic types    =            3
     number of electrons       =        44.00
     number of Kohn-Sham states=           26
     kinetic-energy cutoff     =      60.0000  Ry
     charge density cutoff     =     720.0000  Ry
     scf convergence threshold =      1.0E-10
     mixing beta               =       0.1000
     number of iterations used =            8  local-TF  mixing
     energy convergence thresh.=      1.0E-04
     force convergence thresh. =      1.0E-03
     press convergence thresh. =      5.0E-01
     Exchange-correlation= SLA  PW   PSX  PSC
                           (   1   4  10   8   0   0   0)
     nstep                     =           50


     celldm(1)=   7.304502  celldm(2)=   0.000000  celldm(3)=   0.000000
     celldm(4)=   0.000000  celldm(5)=   0.000000  celldm(6)=   0.000000

     crystal axes: (cart. coord. in units of alat)
               a(1) = (   1.000000   0.000000   0.000000 )  
               a(2) = (   0.000000   1.000000   0.000000 )  
               a(3) = (   0.000000   0.000000   1.000000 )  

     reciprocal axes: (cart. coord. in units 2 pi/alat)
               b(1) = (  1.000000  0.000000  0.000000 )  
               b(2) = (  0.000000  1.000000  0.000000 )  
               b(3) = (  0.000000  0.000000  1.000000 )  


     PseudoPot. # 1 for Sr read from file:
     ./Pseudos/sr_pbesol_v1.uspp.F.UPF
     MD5 check sum: 635bff1625df5273dba4129a01ed8c82
     Pseudo is Ultrasoft + core correction, Zval = 10.0
     Generated by new atomic code, or converted to UPF format
     Using radial grid of  883 points,  6 beta functions with: 
                l(1) =   0
                l(2) =   0
                l(3) =   1
                l(4) =   1
                l(5) =   2
                l(6) =   2
     Q(r) pseudized with  6 coefficients,  rinner =    1.400   1.400   1.400
                                                       1.400   1.400

     PseudoPot. # 2 for Ru read from file:
     ./Pseudos/Ru_ONCV_PBEsol-1.0.upf
     MD5 check sum: 8f986bf37b5af91b2f53a4f9afee5fd8
     Pseudo is Norm-conserving, Zval = 16.0
     Generated using ONCVPSP code by D. R. Hamann
     Using radial grid of 1440 points,  6 beta functions with: 
                l(1) =   0
                l(2) =   0
                l(3) =   1
                l(4) =   1
                l(5) =   2
                l(6) =   2

     PseudoPot. # 3 for O  read from file:
     ./Pseudos/O.pbesol-n-kjpaw_psl.0.1.UPF
     MD5 check sum: 81d73d1479e654e5638b0319f0d6c2c7
     Pseudo is Projector augmented-wave + core cor, Zval =  6.0
     Generated using "atomic" code by A. Dal Corso  v.6.0 svn rev. 13079
     Shape of augmentation charge: BESSEL
     Using radial grid of 1095 points,  4 beta functions with: 
                l(1) =   0
                l(2) =   0
                l(3) =   1
                l(4) =   1
     Q(r) pseudized with 0 coefficients 


     atomic species   valence    mass     pseudopotential
        Sr            10.00    87.62000     Sr( 1.00)
        Ru            16.00    50.94150     Ru( 1.00)
        O              6.00    15.99940     O ( 1.00)

     48 Sym. Ops., with inversion, found



   Cartesian axes

     site n.     atom                  positions (alat units)
         1           Sr  tau(   1) = (   0.0000000   0.0000000   0.0000000  )
         2           Ru  tau(   2) = (   0.5000000   0.5000000   0.5000000  )
         3           O   tau(   3) = (   0.5000000   0.5000000   0.0000000  )
         4           O   tau(   4) = (   0.5000000   0.0000000   0.5000000  )
         5           O   tau(   5) = (   0.0000000   0.5000000   0.5000000  )

     number of k points=    10  Methfessel-Paxton smearing, width (Ry)=  0.0200
                       cart. coord. in units 2pi/alat
        k(    1) = (   0.0000000   0.0000000   0.0000000), wk =   0.0160000
        k(    2) = (   0.0000000   0.0000000   0.2000000), wk =   0.0960000
        k(    3) = (   0.0000000   0.0000000   0.4000000), wk =   0.0960000
        k(    4) = (   0.0000000   0.2000000   0.2000000), wk =   0.1920000
        k(    5) = (   0.0000000   0.2000000   0.4000000), wk =   0.3840000
        k(    6) = (   0.0000000   0.4000000   0.4000000), wk =   0.1920000
        k(    7) = (   0.2000000   0.2000000   0.2000000), wk =   0.1280000
        k(    8) = (   0.2000000   0.2000000   0.4000000), wk =   0.3840000
        k(    9) = (   0.2000000   0.4000000   0.4000000), wk =   0.3840000
        k(   10) = (   0.4000000   0.4000000   0.4000000), wk =   0.1280000

     Dense  grid:   127171 G-vectors     FFT dimensions: (  64,  64,  64)

     Smooth grid:    24405 G-vectors     FFT dimensions: (  40,  40,  40)

     Estimated max dynamical RAM per process >      73.42 MB

     Estimated total dynamical RAM >     587.34 MB

     Initial potential from superposition of free atoms

     starting charge      43.9687, renormalised to      44.0000

     negative rho (up, down):  6.361E-02 0.000E+00
     Starting wfcs are   35 randomized atomic wfcs
     Checking if some PAW data can be deallocated... 

     total cpu time spent up to now is        5.7 secs

     per-process dynamical memory:    40.4 Mb

     Self-consistent Calculation

     iteration #  1     ecut=    60.00 Ry     beta= 0.10
     Davidson diagonalization with overlap
     ethr =  1.00E-02,  avg # of iterations =  2.0

     negative rho (up, down):  6.345E-02 0.000E+00

     total cpu time spent up to now is        6.9 secs

     total energy              =    -382.50014096 Ry
     estimated scf accuracy    <       1.13245190 Ry

     iteration #  2     ecut=    60.00 Ry     beta= 0.10
     Davidson diagonalization with overlap
     ethr =  2.57E-03,  avg # of iterations =  1.0

     negative rho (up, down):  6.250E-02 0.000E+00

     total cpu time spent up to now is        8.0 secs

     total energy              =    -382.17264463 Ry
     estimated scf accuracy    <       0.82650530 Ry

     iteration #  3     ecut=    60.00 Ry     beta= 0.10
     Davidson diagonalization with overlap
     ethr =  1.88E-03,  avg # of iterations =  2.0

     negative rho (up, down):  6.257E-02 0.000E+00

     total cpu time spent up to now is        9.3 secs

     total energy              =    -382.31441505 Ry
     estimated scf accuracy    <       0.06198530 Ry

     iteration #  4     ecut=    60.00 Ry     beta= 0.10
     Davidson diagonalization with overlap
     ethr =  1.41E-04,  avg # of iterations =  5.2

     negative rho (up, down):  6.359E-02 0.000E+00

     total cpu time spent up to now is       10.5 secs

     total energy              =    -382.29675754 Ry
     estimated scf accuracy    <       0.05235553 Ry

     iteration #  5     ecut=    60.00 Ry     beta= 0.10
     Davidson diagonalization with overlap
     ethr =  1.19E-04,  avg # of iterations =  2.1

     negative rho (up, down):  6.375E-02 0.000E+00

     total cpu time spent up to now is       11.8 secs

     total energy              =    -382.29393853 Ry
     estimated scf accuracy    <       0.07106776 Ry

     iteration #  6     ecut=    60.00 Ry     beta= 0.10
     Davidson diagonalization with overlap
     ethr =  1.19E-04,  avg # of iterations =  2.3

     negative rho (up, down):  6.423E-02 0.000E+00

     total cpu time spent up to now is       13.0 secs

     total energy              =    -382.29610220 Ry
     estimated scf accuracy    <       0.01316968 Ry

     iteration #  7     ecut=    60.00 Ry     beta= 0.10
     Davidson diagonalization with overlap
     ethr =  2.99E-05,  avg # of iterations =  1.1

     negative rho (up, down):  6.619E-02 0.000E+00

     total cpu time spent up to now is       14.2 secs

     total energy              =    -382.29147007 Ry
     estimated scf accuracy    <       0.00781255 Ry

     iteration #  8     ecut=    60.00 Ry     beta= 0.10
     Davidson diagonalization with overlap
     ethr =  1.78E-05,  avg # of iterations =  5.5

     negative rho (up, down):  6.607E-02 0.000E+00

     total cpu time spent up to now is       15.7 secs

     total energy              =    -382.29416734 Ry
     estimated scf accuracy    <       0.00084050 Ry

     iteration #  9     ecut=    60.00 Ry     beta= 0.10
     Davidson diagonalization with overlap
     ethr =  1.91E-06,  avg # of iterations =  3.9

     negative rho (up, down):  6.605E-02 0.000E+00

     total cpu time spent up to now is       17.0 secs

     total energy              =    -382.29437020 Ry
     estimated scf accuracy    <       0.00020714 Ry

     iteration # 10     ecut=    60.00 Ry     beta= 0.10
     Davidson diagonalization with overlap
     ethr =  4.71E-07,  avg # of iterations =  1.2

     negative rho (up, down):  6.588E-02 0.000E+00

     total cpu time spent up to now is       18.2 secs

     total energy              =    -382.29426140 Ry
     estimated scf accuracy    <       0.00017367 Ry

     iteration # 11     ecut=    60.00 Ry     beta= 0.10
     Davidson diagonalization with overlap
     ethr =  3.95E-07,  avg # of iterations =  2.0

     negative rho (up, down):  6.591E-02 0.000E+00

     total cpu time spent up to now is       19.5 secs

     total energy              =    -382.29429002 Ry
     estimated scf accuracy    <       0.00004099 Ry

     iteration # 12     ecut=    60.00 Ry     beta= 0.10
     Davidson diagonalization with overlap
     ethr =  9.32E-08,  avg # of iterations =  1.2

     negative rho (up, down):  6.594E-02 0.000E+00

     total cpu time spent up to now is       20.6 secs

     total energy              =    -382.29428994 Ry
     estimated scf accuracy    <       0.00001247 Ry

     iteration # 13     ecut=    60.00 Ry     beta= 0.10
     Davidson diagonalization with overlap
     ethr =  2.83E-08,  avg # of iterations =  2.4

     negative rho (up, down):  6.600E-02 0.000E+00

     total cpu time spent up to now is       21.9 secs

     total energy              =    -382.29429527 Ry
     estimated scf accuracy    <       0.00000191 Ry

     iteration # 14     ecut=    60.00 Ry     beta= 0.10
     Davidson diagonalization with overlap
     ethr =  4.33E-09,  avg # of iterations =  2.8

     negative rho (up, down):  6.599E-02 0.000E+00

     total cpu time spent up to now is       23.2 secs

     total energy              =    -382.29429812 Ry
     estimated scf accuracy    <       0.00000162 Ry

     iteration # 15     ecut=    60.00 Ry     beta= 0.10
     Davidson diagonalization with overlap
     ethr =  3.68E-09,  avg # of iterations =  2.5

     negative rho (up, down):  6.598E-02 0.000E+00

     total cpu time spent up to now is       24.5 secs

     total energy              =    -382.29430121 Ry
     estimated scf accuracy    <       0.00000063 Ry

     iteration # 16     ecut=    60.00 Ry     beta= 0.10
     Davidson diagonalization with overlap
     ethr =  1.44E-09,  avg # of iterations =  1.7

     negative rho (up, down):  6.596E-02 0.000E+00

     total cpu time spent up to now is       25.6 secs

     total energy              =    -382.29430334 Ry
     estimated scf accuracy    <       0.00000018 Ry

     iteration # 17     ecut=    60.00 Ry     beta= 0.10
     Davidson diagonalization with overlap
     ethr =  4.17E-10,  avg # of iterations =  3.2

     negative rho (up, down):  6.597E-02 0.000E+00

     total cpu time spent up to now is       27.1 secs

     total energy              =    -382.29430513 Ry
     estimated scf accuracy    <       0.00000008 Ry

     iteration # 18     ecut=    60.00 Ry     beta= 0.10
     Davidson diagonalization with overlap
     ethr =  1.90E-10,  avg # of iterations =  2.3

     negative rho (up, down):  6.597E-02 0.000E+00

     total cpu time spent up to now is       28.5 secs

     total energy              =    -382.29430655 Ry
     estimated scf accuracy    <          2.4E-09 Ry

     iteration # 19     ecut=    60.00 Ry     beta= 0.10
     Davidson diagonalization with overlap
     ethr =  5.44E-12,  avg # of iterations =  4.8

     negative rho (up, down):  6.597E-02 0.000E+00

     total cpu time spent up to now is       30.4 secs

     total energy              =    -382.29430770 Ry
     estimated scf accuracy    <       0.00000001 Ry

     iteration # 20     ecut=    60.00 Ry     beta= 0.10
     Davidson diagonalization with overlap
     ethr =  5.44E-12,  avg # of iterations =  2.5

     negative rho (up, down):  6.596E-02 0.000E+00

     total cpu time spent up to now is       31.8 secs

     total energy              =    -382.29430862 Ry
     estimated scf accuracy    <          3.3E-09 Ry

     iteration # 21     ecut=    60.00 Ry     beta= 0.10
     Davidson diagonalization with overlap
     ethr =  5.44E-12,  avg # of iterations =  4.7

     negative rho (up, down):  6.597E-02 0.000E+00

     total cpu time spent up to now is       33.5 secs

     total energy              =    -382.29430937 Ry
     estimated scf accuracy    <          9.2E-09 Ry

     iteration # 22     ecut=    60.00 Ry     beta= 0.10
     Davidson diagonalization with overlap
     ethr =  5.44E-12,  avg # of iterations =  2.1

     negative rho (up, down):  6.597E-02 0.000E+00

     total cpu time spent up to now is       34.8 secs

     total energy              =    -382.29430998 Ry
     estimated scf accuracy    <          1.4E-09 Ry

     iteration # 23     ecut=    60.00 Ry     beta= 0.10
     Davidson diagonalization with overlap
     ethr =  3.18E-12,  avg # of iterations =  1.7

     negative rho (up, down):  6.597E-02 0.000E+00

     total cpu time spent up to now is       35.7 secs

     total energy              =    -382.29431047 Ry
     estimated scf accuracy    <          5.5E-10 Ry

     iteration # 24     ecut=    60.00 Ry     beta= 0.10
     Davidson diagonalization with overlap
     ethr =  1.25E-12,  avg # of iterations =  3.1

     negative rho (up, down):  6.597E-02 0.000E+00

     total cpu time spent up to now is       37.0 secs

     End of self-consistent calculation

          k = 0.0000 0.0000 0.0000 (  3071 PWs)   bands (ev):

   -60.3253 -30.3982 -30.3982 -30.3982 -20.4914  -6.0280  -5.1318  -5.1318
    -2.5269  -2.5269  -2.5269   8.5932   8.5932   8.5932  10.4965  10.4965
    10.4965  10.9674  10.9674  10.9674  11.1380  11.1380  11.1380  14.0600
    14.0600  17.3299

          k = 0.0000 0.0000 0.2000 (  3058 PWs)   bands (ev):

   -60.3251 -30.4077 -30.3977 -30.3977 -20.4809  -6.0414  -5.1177  -5.0300
    -2.5080  -2.5080  -2.3295   7.4862   8.5088   8.5088   9.4003   9.4003
    10.0520  10.1768  10.8709  10.8709  11.0030  12.5549  12.5549  14.0682
    15.7223  17.9782

          k = 0.0000 0.0000 0.4000 (  3058 PWs)   bands (ev):

   -60.3249 -30.4230 -30.3969 -30.3969 -20.4638  -6.1797  -5.0949  -4.6531
    -2.4771  -2.4771  -2.0477   5.8342   8.3645   8.3645   8.6631   8.6631
     9.2701   9.7349  10.7456  10.7456  11.0620  13.8624  13.8624  14.0777
    17.2282  19.2281

          k = 0.0000 0.2000 0.2000 (  3051 PWs)   bands (ev):

   -60.3250 -30.4073 -30.4071 -30.3972 -20.4713  -5.9558  -5.0721  -5.0277
    -2.4868  -2.4318  -2.2690   7.4188   7.4533   8.3634   8.4026   8.9959
     9.9596  10.0345  10.3100  10.7685  12.4449  12.6201  12.8479  14.8974
    16.6386  18.4975

          k = 0.0000 0.2000 0.4000 (  3045 PWs)   bands (ev):

   -60.3248 -30.4224 -30.4063 -30.3964 -20.4558  -5.9665  -5.0223  -4.7779
    -2.4520  -2.3761  -2.1191   5.8198   7.2586   7.6113   8.2147   8.4254
     9.6918   9.8545  10.1608  10.7184  12.5043  13.8366  13.8519  15.0936
    18.0922  19.4577

          k = 0.0000 0.4000 0.4000 (  3060 PWs)   bands (ev):

   -60.3246 -30.4215 -30.4214 -30.3957 -20.4428  -5.5989  -4.9749  -4.8890
    -2.4107  -2.2340  -2.1892   5.6729   5.9894   6.4387   7.9737   8.0153
     9.5507   9.9737  10.1370  11.5115  13.7702  13.8312  14.2193  15.5609
    19.6626  19.9652

          k = 0.2000 0.2000 0.2000 (  3058 PWs)   bands (ev):

   -60.3249 -30.4068 -30.4066 -30.4066 -20.4624  -5.8155  -5.0210  -5.0210
    -2.4887  -2.4887  -2.1751   7.3132   7.4177   7.4177   8.3105   8.3105
     8.7264  10.5624  10.5624  10.8983  12.7626  12.9943  12.9943  16.6323
    16.6323  18.9917

          k = 0.2000 0.2000 0.4000 (  3071 PWs)   bands (ev):

   -60.3246 -30.4218 -30.4059 -30.4057 -20.4479  -5.7388  -4.9324  -4.8102
    -2.5877  -2.3398  -2.1696   5.8128   7.1143   7.4311   7.6914   7.7110
     8.5930  10.4702  10.5823  10.8688  13.0143  13.8766  13.9547  16.6033
    18.3842  19.8540

          k = 0.2000 0.4000 0.4000 (  3070 PWs)   bands (ev):

   -60.3244 -30.4209 -30.4208 -30.4050 -20.4351  -5.3391  -4.8632  -4.7947
    -2.6016  -2.4172  -2.2814   5.6771   5.9935   6.6659   7.4855   7.6056
     7.9990  10.6737  10.7797  11.5297  13.9829  14.0400  14.3335  17.3698
    19.6385  19.8172

          k = 0.4000 0.4000 0.4000 (  3070 PWs)   bands (ev):

   -60.3242 -30.4200 -30.4200 -30.4200 -20.4226  -4.8644  -4.6418  -4.6418
    -2.7518  -2.7518  -2.5695   5.6842   5.6842   6.3412   6.9983   7.1849
     7.1849  11.4608  11.4608  11.6243  14.5033  14.5417  14.5417  19.2381
    19.2381  19.3264

     the Fermi energy is    13.9516 ev

!    total energy              =    -382.29431256 Ry
     estimated scf accuracy    <          3.6E-11 Ry
     smearing contrib. (-TS)   =      -0.00529588 Ry
     internal energy E=F+TS    =    -382.28901669 Ry

     The total energy is F=E-TS. E is the sum of the following terms:
     one-electron contribution =    -104.97621216 Ry
     hartree contribution      =      78.90848938 Ry
     xc contribution           =     -60.04974356 Ry
     ewald contribution        =    -268.86362651 Ry
     one-center paw contrib.   =     -27.30792385 Ry

     convergence has been achieved in  24 iterations

     negative rho (up, down):  6.597E-02 0.000E+00

     Forces acting on atoms (cartesian axes, Ry/au):

     atom    1 type  1   force =     0.00000000    0.00000000    0.00000000
     atom    2 type  2   force =     0.00000000    0.00000000    0.00000000
     atom    3 type  3   force =     0.00000000    0.00000000    0.00000000
     atom    4 type  3   force =     0.00000000    0.00000000    0.00000000
     atom    5 type  3   force =     0.00000000    0.00000000    0.00000000
     The non-local contrib.  to forces
     atom    1 type  1   force =     0.00000000    0.00000000    0.00000000
     atom    2 type  2   force =     0.00000000    0.00000000    0.00000000
     atom    3 type  3   force =     0.00000000    0.00000000    0.00000000
     atom    4 type  3   force =     0.00000000    0.00000000    0.00000000
     atom    5 type  3   force =     0.00000000    0.00000000    0.00000000
     The ionic contribution  to forces
     atom    1 type  1   force =    -0.00000000   -0.00000000   -0.00000000
     atom    2 type  2   force =     0.00000000    0.00000000    0.00000000
     atom    3 type  3   force =     0.00000000    0.00000000   -0.00000000
     atom    4 type  3   force =     0.00000000   -0.00000000    0.00000000
     atom    5 type  3   force =    -0.00000000    0.00000000    0.00000000
     The local contribution  to forces
     atom    1 type  1   force =     0.00000000    0.00000000   -0.00000000
     atom    2 type  2   force =     0.00000000    0.00000000    0.00000000
     atom    3 type  3   force =     0.00000000    0.00000000    0.00000000
     atom    4 type  3   force =     0.00000000   -0.00000000    0.00000000
     atom    5 type  3   force =    -0.00000000    0.00000000    0.00000000
     The core correction contribution to forces
     atom    1 type  1   force =    -0.00000000    0.00000000    0.00000000
     atom    2 type  2   force =     0.00000000    0.00000000    0.00000000
     atom    3 type  3   force =     0.00000000    0.00000000    0.00000000
     atom    4 type  3   force =     0.00000000    0.00000000   -0.00000000
     atom    5 type  3   force =     0.00000000    0.00000000   -0.00000000
     The Hubbard contrib.    to forces
     atom    1 type  1   force =     0.00000000    0.00000000    0.00000000
     atom    2 type  2   force =     0.00000000    0.00000000    0.00000000
     atom    3 type  3   force =     0.00000000    0.00000000    0.00000000
     atom    4 type  3   force =     0.00000000    0.00000000    0.00000000
     atom    5 type  3   force =     0.00000000    0.00000000    0.00000000
     The SCF correction term to forces
     atom    1 type  1   force =    -0.00000000    0.00000000   -0.00000000
     atom    2 type  2   force =     0.00000000   -0.00000000    0.00000000
     atom    3 type  3   force =    -0.00000000    0.00000000   -0.00000000
     atom    4 type  3   force =     0.00000000   -0.00000000   -0.00000000
     atom    5 type  3   force =     0.00000000   -0.00000000    0.00000000

     Total force =     0.000000     Total SCF correction =     0.000000


     Computing stress (Cartesian axis) and pressure


     negative rho (up, down):  6.597E-02 0.000E+00
          total   stress  (Ry/bohr**3)                   (kbar)     P=       65.92
   0.00044810   0.00000000   0.00000000           65.92        0.00        0.00
   0.00000000   0.00044810   0.00000000            0.00       65.92        0.00
   0.00000000   0.00000000   0.00044810            0.00        0.00       65.92


     BFGS Geometry Optimization
     Energy error            =      0.0E+00 Ry
     Gradient error          =      0.0E+00 Ry/Bohr
     Cell gradient error     =      6.6E+01 kbar

     number of scf cycles    =   1
     number of bfgs steps    =   0

     enthalpy           new  =    -382.2943125646 Ry

     new trust radius        =       0.0442317494 bohr
     new conv_thr            =            1.0E-10 Ry

     new unit-cell volume =    402.98268 a.u.^3 (    59.71587 Ang^3 )
     density =      5.18773 g/cm^3

CELL_PARAMETERS (angstrom)
   3.908678298   0.000000000   0.000000000
   0.000000000   3.908678298   0.000000000
   0.000000000   0.000000000   3.908678298

ATOMIC_POSITIONS (crystal)
Sr            0.0000000000        0.0000000000        0.0000000000
Ru            0.5000000000        0.5000000000        0.5000000000
O             0.5000000000        0.5000000000        0.0000000000
O             0.5000000000        0.0000000000        0.5000000000
O             0.0000000000        0.5000000000        0.5000000000



     Writing config-only to output data dir ./QE_tmp/sro.save/
     NEW-OLD atomic charge density approx. for the potential

     negative rho (up, down):  6.829E-02 0.000E+00
     extrapolated charge   45.44519, renormalised to   44.00000

     total cpu time spent up to now is       50.8 secs

     per-process dynamical memory:    65.0 Mb

     Self-consistent Calculation

     iteration #  1     ecut=    60.00 Ry     beta= 0.10
     Davidson diagonalization with overlap
     ethr =  1.00E-06,  avg # of iterations = 13.9

     negative rho (up, down):  6.602E-02 0.000E+00

     total cpu time spent up to now is       53.6 secs

     total energy              =    -382.14796767 Ry
     estimated scf accuracy    <       0.24963265 Ry

     iteration #  2     ecut=    60.00 Ry     beta= 0.10
     Davidson diagonalization with overlap
     ethr =  5.67E-04,  avg # of iterations =  7.1

     negative rho (up, down):  6.602E-02 0.000E+00

     total cpu time spent up to now is       55.1 secs

     total energy              =    -382.29719731 Ry
     estimated scf accuracy    <       0.00150821 Ry

     iteration #  3     ecut=    60.00 Ry     beta= 0.10
     Davidson diagonalization with overlap
     ethr =  3.43E-06,  avg # of iterations =  5.1

     negative rho (up, down):  6.599E-02 0.000E+00

     total cpu time spent up to now is       56.7 secs

     total energy              =    -382.29951600 Ry
     estimated scf accuracy    <       0.00343110 Ry

     iteration #  4     ecut=    60.00 Ry     beta= 0.10
     Davidson diagonalization with overlap
     ethr =  3.43E-06,  avg # of iterations =  1.0

     negative rho (up, down):  6.607E-02 0.000E+00

     total cpu time spent up to now is       57.6 secs

     total energy              =    -382.29760627 Ry
     estimated scf accuracy    <       0.00445493 Ry

     iteration #  5     ecut=    60.00 Ry     beta= 0.10
     Davidson diagonalization with overlap
     ethr =  3.43E-06,  avg # of iterations =  2.0

     negative rho (up, down):  6.609E-02 0.000E+00

     total cpu time spent up to now is       58.9 secs

     total energy              =    -382.29739739 Ry
     estimated scf accuracy    <       0.00191766 Ry

     iteration #  6     ecut=    60.00 Ry     beta= 0.10
     Davidson diagonalization with overlap
     ethr =  3.43E-06,  avg # of iterations =  1.1

     negative rho (up, down):  6.610E-02 0.000E+00

     total cpu time spent up to now is       60.0 secs

     total energy              =    -382.29722399 Ry
     estimated scf accuracy    <       0.00112044 Ry

     iteration #  7     ecut=    60.00 Ry     beta= 0.10
     Davidson diagonalization with overlap
     ethr =  2.55E-06,  avg # of iterations =  1.7

     negative rho (up, down):  6.611E-02 0.000E+00

     total cpu time spent up to now is       61.0 secs

     total energy              =    -382.29720393 Ry
     estimated scf accuracy    <       0.00058978 Ry

     iteration #  8     ecut=    60.00 Ry     beta= 0.10
     Davidson diagonalization with overlap
     ethr =  1.34E-06,  avg # of iterations =  1.0

     negative rho (up, down):  6.613E-02 0.000E+00

     total cpu time spent up to now is       62.0 secs

     total energy              =    -382.29700841 Ry
     estimated scf accuracy    <       0.00044107 Ry

     iteration #  9     ecut=    60.00 Ry     beta= 0.10
     Davidson diagonalization with overlap
     ethr =  1.00E-06,  avg # of iterations =  2.2

     negative rho (up, down):  6.614E-02 0.000E+00

     total cpu time spent up to now is       63.2 secs

     total energy              =    -382.29703092 Ry
     estimated scf accuracy    <       0.00009545 Ry

     iteration # 10     ecut=    60.00 Ry     beta= 0.10
     Davidson diagonalization with overlap
     ethr =  2.17E-07,  avg # of iterations =  2.7

     negative rho (up, down):  6.614E-02 0.000E+00

     total cpu time spent up to now is       64.5 secs

     total energy              =    -382.29706220 Ry
     estimated scf accuracy    <       0.00001982 Ry

     iteration # 11     ecut=    60.00 Ry     beta= 0.10
     Davidson diagonalization with overlap
     ethr =  4.50E-08,  avg # of iterations =  2.4

     negative rho (up, down):  6.616E-02 0.000E+00

     total cpu time spent up to now is       65.7 secs

     total energy              =    -382.29707219 Ry
     estimated scf accuracy    <       0.00001437 Ry

     iteration # 12     ecut=    60.00 Ry     beta= 0.10
     Davidson diagonalization with overlap
     ethr =  3.27E-08,  avg # of iterations =  2.2

     negative rho (up, down):  6.621E-02 0.000E+00

     total cpu time spent up to now is       66.9 secs

     total energy              =    -382.29708584 Ry
     estimated scf accuracy    <       0.00000278 Ry

     iteration # 13     ecut=    60.00 Ry     beta= 0.10
     Davidson diagonalization with overlap
     ethr =  6.31E-09,  avg # of iterations =  3.7

     negative rho (up, down):  6.620E-02 0.000E+00

     total cpu time spent up to now is       68.4 secs

     total energy              =    -382.29709793 Ry
     estimated scf accuracy    <       0.00000003 Ry

     iteration # 14     ecut=    60.00 Ry     beta= 0.10
     Davidson diagonalization with overlap
     ethr =  7.61E-11,  avg # of iterations =  4.1

     negative rho (up, down):  6.620E-02 0.000E+00

     total cpu time spent up to now is       69.8 secs

     total energy              =    -382.29710692 Ry
     estimated scf accuracy    <       0.00000004 Ry

     iteration # 15     ecut=    60.00 Ry     beta= 0.10
     Davidson diagonalization with overlap
     ethr =  7.61E-11,  avg # of iterations =  1.2

     negative rho (up, down):  6.620E-02 0.000E+00

     total cpu time spent up to now is       71.0 secs

     total energy              =    -382.29711416 Ry
     estimated scf accuracy    <       0.00000004 Ry

     iteration # 16     ecut=    60.00 Ry     beta= 0.10
     Davidson diagonalization with overlap
     ethr =  7.61E-11,  avg # of iterations =  1.0

     negative rho (up, down):  6.620E-02 0.000E+00

     total cpu time spent up to now is       72.1 secs

     total energy              =    -382.29712009 Ry
     estimated scf accuracy    <       0.00000005 Ry

     iteration # 17     ecut=    60.00 Ry     beta= 0.10
     Davidson diagonalization with overlap
     ethr =  7.61E-11,  avg # of iterations =  4.6

     negative rho (up, down):  6.621E-02 0.000E+00

     total cpu time spent up to now is       73.7 secs

     total energy              =    -382.29712463 Ry
     estimated scf accuracy    <       0.00000039 Ry

     iteration # 18     ecut=    60.00 Ry     beta= 0.10
     Davidson diagonalization with overlap
     ethr =  7.61E-11,  avg # of iterations =  5.1

     negative rho (up, down):  6.620E-02 0.000E+00

     total cpu time spent up to now is       75.4 secs

     total energy              =    -382.29712859 Ry
     estimated scf accuracy    <       0.00000011 Ry

     iteration # 19     ecut=    60.00 Ry     beta= 0.10
     Davidson diagonalization with overlap
     ethr =  7.61E-11,  avg # of iterations =  3.2

     negative rho (up, down):  6.621E-02 0.000E+00

     total cpu time spent up to now is       76.6 secs

     total energy              =    -382.29713168 Ry
     estimated scf accuracy    <          8.4E-09 Ry

     iteration # 20     ecut=    60.00 Ry     beta= 0.10
     Davidson diagonalization with overlap
     ethr =  1.90E-11,  avg # of iterations =  3.6

     negative rho (up, down):  6.621E-02 0.000E+00

     total cpu time spent up to now is       78.0 secs

     total energy              =    -382.29713420 Ry
     estimated scf accuracy    <          3.9E-09 Ry

     iteration # 21     ecut=    60.00 Ry     beta= 0.10
     Davidson diagonalization with overlap
     ethr =  8.88E-12,  avg # of iterations =  2.9

     negative rho (up, down):  6.621E-02 0.000E+00

     total cpu time spent up to now is       79.3 secs

     total energy              =    -382.29713623 Ry
     estimated scf accuracy    <          9.1E-10 Ry

     iteration # 22     ecut=    60.00 Ry     beta= 0.10
     Davidson diagonalization with overlap
     ethr =  2.06E-12,  avg # of iterations =  2.0

     negative rho (up, down):  6.620E-02 0.000E+00

     total cpu time spent up to now is       80.5 secs

     End of self-consistent calculation

          k = 0.0000 0.0000 0.0000 (  3071 PWs)   bands (ev):

   -60.9013 -30.9458 -30.9458 -30.9458 -21.1445  -6.4206  -5.5361  -5.5361
    -3.1653  -3.1653  -3.1653   8.0938   8.0938   8.0938  10.0201  10.0201
    10.0201  10.4602  10.4602  10.4602  10.6036  10.6036  10.6036  13.3350
    13.3350  16.7560

          k = 0.0000 0.0000 0.1978 (  3058 PWs)   bands (ev):

   -60.9012 -30.9538 -30.9453 -30.9453 -21.1357  -6.4284  -5.5234  -5.4525
    -3.1487  -3.1487  -2.9814   7.0323   8.0253   8.0253   8.9534   8.9534
     9.5512   9.7192  10.3534  10.3534  10.4931  11.9779  11.9779  13.3408
    14.9366  17.3713

          k = 0.0000 0.0000 0.3956 (  3058 PWs)   bands (ev):

   -60.9010 -30.9669 -30.9447 -30.9447 -21.1216  -6.5491  -5.5026  -5.1233
    -3.1216  -3.1216  -2.7210   5.4647   7.9270   7.9270   8.2123   8.2123
     8.7979   9.3010  10.2333  10.2333  10.5476  13.2175  13.2175  13.3479
    16.3657  18.4657

          k = 0.0000 0.1978 0.1978 (  3051 PWs)   bands (ev):

   -60.9011 -30.9535 -30.9533 -30.9449 -21.1277  -6.3467  -5.4938  -5.4457
    -3.1303  -3.0729  -2.9284   6.9743   7.0106   7.9372   7.9376   8.5762
     9.4870   9.5290   9.8128  10.2705  11.8738  12.0390  12.2569  14.1367
    15.8284  17.8703

          k = 0.0000 0.1978 0.3956 (  3045 PWs)   bands (ev):

   -60.9009 -30.9664 -30.9527 -30.9443 -21.1148  -6.3487  -5.4421  -5.2395
    -3.1002  -3.0240  -2.7857   5.4532   6.8682   7.1709   7.7947   8.0065
     9.2220   9.3472   9.6750  10.2253  11.9288  13.1930  13.2097  14.3219
    17.2167  18.7864

          k = 0.0000 0.3956 0.3956 (  3060 PWs)   bands (ev):

   -60.9007 -30.9656 -30.9655 -30.9436 -21.1037  -5.9963  -5.4254  -5.3373
    -3.0650  -2.8884  -2.8492   5.3292   5.5979   6.0918   7.5819   7.6320
     9.0270   9.4859   9.6366  10.9850  13.1302  13.1867  13.5598  14.7603
    18.7444  19.2666

          k = 0.1978 0.1978 0.1978 (  3058 PWs)   bands (ev):

   -60.9010 -30.9531 -30.9529 -30.9529 -21.1202  -6.2163  -5.4453  -5.4453
    -3.1254  -3.1254  -2.8450   6.8974   6.9759   6.9759   7.8996   7.8996
     8.2476  10.0640  10.0640  10.4034  12.1673  12.3958  12.3958  15.8199
    15.8199  18.3472

          k = 0.1978 0.1978 0.3956 (  3071 PWs)   bands (ev):

   -60.9008 -30.9659 -30.9523 -30.9522 -21.1081  -6.1369  -5.3610  -5.2704
    -3.2168  -2.9888  -2.8353   5.4486   6.7387   6.9955   7.2735   7.2868
     8.1364   9.9867  10.0767  10.3775  12.4080  13.2283  13.3073  15.7883
    17.5008  19.1238

          k = 0.1978 0.3956 0.3956 (  3070 PWs)   bands (ev):

   -60.9006 -30.9651 -30.9651 -30.9516 -21.0972  -5.7585  -5.3197  -5.2487
    -3.2289  -3.0540  -2.9349   5.3337   5.6053   6.3008   7.0730   7.2074
     7.5349  10.1772  10.2745  11.0031  13.3265  13.3820  13.6648  16.5208
    18.7232  19.1154

          k = 0.3956 0.3956 0.3956 (  3070 PWs)   bands (ev):

   -60.9004 -30.9644 -30.9644 -30.9644 -21.0866  -5.3225  -5.1105  -5.1105
    -3.3587  -3.3587  -3.1934   5.3413   5.3413   5.9061   6.6027   6.7758
     6.7758  10.9363  10.9363  11.0934  13.8163  13.8562  13.8562  18.4700
    18.4700  18.6334

     the Fermi energy is    13.2974 ev

!    total energy              =    -382.29714485 Ry
     estimated scf accuracy    <          5.6E-11 Ry
     smearing contrib. (-TS)   =      -0.00583787 Ry
     internal energy E=F+TS    =    -382.29130698 Ry

     The total energy is F=E-TS. E is the sum of the following terms:
     one-electron contribution =    -109.35887584 Ry
     hartree contribution      =      80.18912289 Ry
     xc contribution           =     -59.92416600 Ry
     ewald contribution        =    -265.88502732 Ry
     one-center paw contrib.   =     -27.31236071 Ry

     convergence has been achieved in  22 iterations

     negative rho (up, down):  6.620E-02 0.000E+00

     Forces acting on atoms (cartesian axes, Ry/au):

     atom    1 type  1   force =     0.00000000    0.00000000    0.00000000
     atom    2 type  2   force =     0.00000000    0.00000000    0.00000000
     atom    3 type  3   force =     0.00000000    0.00000000    0.00000000
     atom    4 type  3   force =     0.00000000    0.00000000    0.00000000
     atom    5 type  3   force =     0.00000000    0.00000000    0.00000000
     The non-local contrib.  to forces
     atom    1 type  1   force =     0.00000000    0.00000000    0.00000000
     atom    2 type  2   force =     0.00000000    0.00000000    0.00000000
     atom    3 type  3   force =     0.00000000    0.00000000    0.00000000
     atom    4 type  3   force =     0.00000000    0.00000000    0.00000000
     atom    5 type  3   force =     0.00000000    0.00000000    0.00000000
     The ionic contribution  to forces
     atom    1 type  1   force =    -0.00000000   -0.00000000   -0.00000000
     atom    2 type  2   force =     0.00000000    0.00000000    0.00000000
     atom    3 type  3   force =     0.00000000    0.00000000   -0.00000000
     atom    4 type  3   force =     0.00000000   -0.00000000    0.00000000
     atom    5 type  3   force =    -0.00000000    0.00000000    0.00000000
     The local contribution  to forces
     atom    1 type  1   force =     0.00000000    0.00000000   -0.00000000
     atom    2 type  2   force =     0.00000000    0.00000000    0.00000000
     atom    3 type  3   force =     0.00000000    0.00000000   -0.00000000
     atom    4 type  3   force =     0.00000000    0.00000000    0.00000000
     atom    5 type  3   force =     0.00000000    0.00000000    0.00000000
     The core correction contribution to forces
     atom    1 type  1   force =     0.00000000   -0.00000000    0.00000000
     atom    2 type  2   force =     0.00000000    0.00000000    0.00000000
     atom    3 type  3   force =    -0.00000000   -0.00000000    0.00000000
     atom    4 type  3   force =    -0.00000000   -0.00000000    0.00000000
     atom    5 type  3   force =    -0.00000000   -0.00000000    0.00000000
     The Hubbard contrib.    to forces
     atom    1 type  1   force =     0.00000000    0.00000000    0.00000000
     atom    2 type  2   force =     0.00000000    0.00000000    0.00000000
     atom    3 type  3   force =     0.00000000    0.00000000    0.00000000
     atom    4 type  3   force =     0.00000000    0.00000000    0.00000000
     atom    5 type  3   force =     0.00000000    0.00000000    0.00000000
     The SCF correction term to forces
     atom    1 type  1   force =     0.00000000    0.00000000    0.00000000
     atom    2 type  2   force =     0.00000000   -0.00000000   -0.00000000
     atom    3 type  3   force =    -0.00000000   -0.00000000   -0.00000000
     atom    4 type  3   force =    -0.00000000   -0.00000000   -0.00000000
     atom    5 type  3   force =     0.00000000   -0.00000000   -0.00000000

     Total force =     0.000000     Total SCF correction =     0.000000


     Computing stress (Cartesian axis) and pressure


     negative rho (up, down):  6.620E-02 0.000E+00
          total   stress  (Ry/bohr**3)                   (kbar)     P=       -0.87
  -0.00000593   0.00000000   0.00000000           -0.87        0.00        0.00
   0.00000000  -0.00000593   0.00000000            0.00       -0.87        0.00
   0.00000000   0.00000000  -0.00000593            0.00        0.00       -0.87

     Energy error            =      2.8E-03 Ry
     Gradient error          =      0.0E+00 Ry/Bohr
     Cell gradient error     =      8.7E-01 kbar

     number of scf cycles    =   2
     number of bfgs steps    =   1

     enthalpy           old  =    -382.2943125646 Ry
     enthalpy           new  =    -382.2971448478 Ry

     CASE: enthalpy          _new < enthalpy          _old

     new trust radius        =       0.0005939545 bohr
     new conv_thr            =            1.0E-12 Ry

     new unit-cell volume =    402.80386 a.u.^3 (    59.68937 Ang^3 )
     density =      5.19003 g/cm^3

CELL_PARAMETERS (angstrom)
   3.908100056   0.000000000   0.000000000
   0.000000000   3.908100056   0.000000000
   0.000000000   0.000000000   3.908100056

ATOMIC_POSITIONS (crystal)
Sr            0.0000000000        0.0000000000        0.0000000000
Ru            0.5000000000        0.5000000000        0.5000000000
O             0.5000000000        0.5000000000        0.0000000000
O             0.5000000000        0.0000000000        0.5000000000
O             0.0000000000        0.5000000000        0.5000000000



     Writing config-only to output data dir ./QE_tmp/sro.save/
     NEW-OLD atomic charge density approx. for the potential

     negative rho (up, down):  6.617E-02 0.000E+00
     extrapolated charge   43.98048, renormalised to   44.00000

     total cpu time spent up to now is       94.3 secs

     per-process dynamical memory:    65.0 Mb

     Self-consistent Calculation

     iteration #  1     ecut=    60.00 Ry     beta= 0.10
     Davidson diagonalization with overlap
     ethr =  1.00E-06,  avg # of iterations =  2.0

     negative rho (up, down):  6.620E-02 0.000E+00

     total cpu time spent up to now is       95.7 secs

     total energy              =    -382.29711881 Ry
     estimated scf accuracy    <       0.00005472 Ry

     iteration #  2     ecut=    60.00 Ry     beta= 0.10
     Davidson diagonalization with overlap
     ethr =  1.24E-07,  avg # of iterations =  2.0

     negative rho (up, down):  6.620E-02 0.000E+00

     total cpu time spent up to now is       97.0 secs

     total energy              =    -382.29714529 Ry
     estimated scf accuracy    <       0.00000015 Ry

     iteration #  3     ecut=    60.00 Ry     beta= 0.10
     Davidson diagonalization with overlap
     ethr =  3.32E-10,  avg # of iterations =  4.9

     negative rho (up, down):  6.620E-02 0.000E+00

     total cpu time spent up to now is       98.7 secs

     total energy              =    -382.29714560 Ry
     estimated scf accuracy    <       0.00000048 Ry

     iteration #  4     ecut=    60.00 Ry     beta= 0.10
     Davidson diagonalization with overlap
     ethr =  3.32E-10,  avg # of iterations =  1.0

     negative rho (up, down):  6.620E-02 0.000E+00

     total cpu time spent up to now is       99.7 secs

     total energy              =    -382.29714558 Ry
     estimated scf accuracy    <       0.00000048 Ry

     iteration #  5     ecut=    60.00 Ry     beta= 0.10
     Davidson diagonalization with overlap
     ethr =  3.32E-10,  avg # of iterations =  1.0

     negative rho (up, down):  6.620E-02 0.000E+00

     total cpu time spent up to now is      100.8 secs

     total energy              =    -382.29714550 Ry
     estimated scf accuracy    <       0.00000044 Ry

     iteration #  6     ecut=    60.00 Ry     beta= 0.10
     Davidson diagonalization with overlap
     ethr =  3.32E-10,  avg # of iterations =  1.0

     negative rho (up, down):  6.620E-02 0.000E+00

     total cpu time spent up to now is      101.8 secs

     total energy              =    -382.29714550 Ry
     estimated scf accuracy    <       0.00000030 Ry

     iteration #  7     ecut=    60.00 Ry     beta= 0.10
     Davidson diagonalization with overlap
     ethr =  3.32E-10,  avg # of iterations =  1.0

     negative rho (up, down):  6.620E-02 0.000E+00

     total cpu time spent up to now is      102.9 secs

     total energy              =    -382.29714535 Ry
     estimated scf accuracy    <       0.00000026 Ry

     iteration #  8     ecut=    60.00 Ry     beta= 0.10
     Davidson diagonalization with overlap
     ethr =  3.32E-10,  avg # of iterations =  2.0

     negative rho (up, down):  6.620E-02 0.000E+00

     total cpu time spent up to now is      104.1 secs

     total energy              =    -382.29714534 Ry
     estimated scf accuracy    <       0.00000006 Ry

     iteration #  9     ecut=    60.00 Ry     beta= 0.10
     Davidson diagonalization with overlap
     ethr =  1.32E-10,  avg # of iterations =  3.2

     negative rho (up, down):  6.620E-02 0.000E+00

     total cpu time spent up to now is      105.4 secs

     total energy              =    -382.29714537 Ry
     estimated scf accuracy    <          5.8E-09 Ry

     iteration # 10     ecut=    60.00 Ry     beta= 0.10
     Davidson diagonalization with overlap
     ethr =  1.32E-11,  avg # of iterations =  3.1

     negative rho (up, down):  6.620E-02 0.000E+00

     total cpu time spent up to now is      106.6 secs

     total energy              =    -382.29714537 Ry
     estimated scf accuracy    <          2.0E-09 Ry

     iteration # 11     ecut=    60.00 Ry     beta= 0.10
     Davidson diagonalization with overlap
     ethr =  4.64E-12,  avg # of iterations =  3.3

     negative rho (up, down):  6.620E-02 0.000E+00

     total cpu time spent up to now is      108.0 secs

     total energy              =    -382.29714538 Ry
     estimated scf accuracy    <          1.3E-09 Ry

     iteration # 12     ecut=    60.00 Ry     beta= 0.10
     Davidson diagonalization with overlap
     ethr =  2.84E-12,  avg # of iterations =  1.0

     negative rho (up, down):  6.620E-02 0.000E+00

     total cpu time spent up to now is      109.2 secs

     total energy              =    -382.29714538 Ry
     estimated scf accuracy    <          1.4E-09 Ry

     iteration # 13     ecut=    60.00 Ry     beta= 0.10
     Davidson diagonalization with overlap
     ethr =  2.84E-12,  avg # of iterations =  2.0

     negative rho (up, down):  6.620E-02 0.000E+00

     total cpu time spent up to now is      110.4 secs

     total energy              =    -382.29714538 Ry
     estimated scf accuracy    <          6.9E-11 Ry

     iteration # 14     ecut=    60.00 Ry     beta= 0.10
     Davidson diagonalization with overlap
     ethr =  1.58E-13,  avg # of iterations =  3.3

     negative rho (up, down):  6.620E-02 0.000E+00

     total cpu time spent up to now is      111.7 secs

     total energy              =    -382.29714538 Ry
     estimated scf accuracy    <          4.2E-11 Ry

     iteration # 15     ecut=    60.00 Ry     beta= 0.10
     Davidson diagonalization with overlap
     ethr =  1.00E-13,  avg # of iterations =  1.5

     negative rho (up, down):  6.620E-02 0.000E+00

     total cpu time spent up to now is      112.8 secs

     total energy              =    -382.29714538 Ry
     estimated scf accuracy    <          2.1E-11 Ry

     iteration # 16     ecut=    60.00 Ry     beta= 0.10
     Davidson diagonalization with overlap
     ethr =  1.00E-13,  avg # of iterations =  2.0

     negative rho (up, down):  6.620E-02 0.000E+00

     total cpu time spent up to now is      114.1 secs

     End of self-consistent calculation

          k = 0.0000 0.0000 0.0000 (  3071 PWs)   bands (ev):

   -60.8939 -30.9387 -30.9387 -30.9387 -21.1359  -6.4155  -5.5308  -5.5308
    -3.1569  -3.1569  -3.1569   8.1003   8.1003   8.1003  10.0263  10.0263
    10.0263  10.4668  10.4668  10.4668  10.6105  10.6105  10.6105  13.3444
    13.3444  16.7632

          k = 0.0000 0.0000 0.1978 (  3058 PWs)   bands (ev):

   -60.8938 -30.9468 -30.9383 -30.9383 -21.1271  -6.4234  -5.5181  -5.4470
    -3.1403  -3.1403  -2.9728   7.0381   8.0315   8.0315   8.9591   8.9591
     9.5577   9.7251  10.3601  10.3601  10.4997  11.9854  11.9854  13.3502
    14.9468  17.3791

          k = 0.0000 0.0000 0.3956 (  3058 PWs)   bands (ev):

   -60.8936 -30.9598 -30.9376 -30.9376 -21.1129  -6.5443  -5.4973  -5.1172
    -3.1131  -3.1131  -2.7122   5.4694   7.9327   7.9327   8.2181   8.2181
     8.8040   9.3066  10.2400  10.2400  10.5543  13.2258  13.2258  13.3574
    16.3769  18.4741

          k = 0.0000 0.1978 0.1978 (  3051 PWs)   bands (ev):

   -60.8936 -30.9464 -30.9462 -30.9379 -21.1191  -6.3416  -5.4883  -5.4402
    -3.1218  -3.0645  -2.9197   6.9800   7.0163   7.9431   7.9432   8.5816
     9.4931   9.5355   9.8192  10.2770  11.8812  12.0465  12.2646  14.1466
    15.8389  17.8783

          k = 0.0000 0.1978 0.3956 (  3045 PWs)   bands (ev):

   -60.8935 -30.9593 -30.9456 -30.9372 -21.1061  -6.3437  -5.4366  -5.2335
    -3.0916  -3.0155  -2.7770   5.4579   6.8732   7.1766   7.8002   8.0119
     9.2281   9.3537   9.6813  10.2317  11.9363  13.2013  13.2181  14.3319
    17.2280  18.7950

          k = 0.0000 0.3956 0.3956 (  3060 PWs)   bands (ev):

   -60.8933 -30.9585 -30.9585 -30.9365 -21.0950  -5.9911  -5.4195  -5.3315
    -3.0564  -2.8798  -2.8406   5.3336   5.6030   6.0963   7.5870   7.6370
     9.0337   9.4922   9.6431  10.9918  13.1385  13.1950  13.5684  14.7707
    18.7563  19.2757

          k = 0.1978 0.1978 0.1978 (  3058 PWs)   bands (ev):

   -60.8935 -30.9460 -30.9458 -30.9458 -21.1116  -6.2111  -5.4397  -5.4397
    -3.1171  -3.1171  -2.8363   6.9028   6.9816   6.9816   7.9049   7.9049
     8.2538  10.0705  10.0705  10.4098  12.1750  12.4036  12.4036  15.8304
    15.8304  18.3554

          k = 0.1978 0.1978 0.3956 (  3071 PWs)   bands (ev):

   -60.8933 -30.9588 -30.9452 -30.9451 -21.0994  -6.1317  -5.3554  -5.2644
    -3.2086  -2.9802  -2.8266   5.4533   6.7436   7.0011   7.2792   7.2920
     8.1423   9.9930  10.0833  10.3839  12.4158  13.2367  13.3157  15.7989
    17.5123  19.1326

          k = 0.1978 0.3956 0.3956 (  3070 PWs)   bands (ev):

   -60.8932 -30.9581 -30.9580 -30.9445 -21.0885  -5.7531  -5.3138  -5.2428
    -3.2207  -3.0457  -2.9263   5.3381   5.6103   6.3055   7.0783   7.2125
     7.5409  10.1836  10.2811  11.0099  13.3350  13.3905  13.6735  16.5318
    18.7350  19.1245

          k = 0.3956 0.3956 0.3956 (  3070 PWs)   bands (ev):

   -60.8930 -30.9574 -30.9573 -30.9573 -21.0778  -5.3166  -5.1044  -5.1044
    -3.3507  -3.3507  -3.1852   5.3457   5.3457   5.9117   6.6078   6.7810
     6.7810  10.9431  10.9431  11.1003  13.8252  13.8650  13.8650  18.4803
    18.4803  18.6424

     the Fermi energy is    13.3059 ev

!    total energy              =    -382.29714539 Ry
     estimated scf accuracy    <          1.5E-13 Ry
     smearing contrib. (-TS)   =      -0.00583227 Ry
     internal energy E=F+TS    =    -382.29131312 Ry

     The total energy is F=E-TS. E is the sum of the following terms:
     one-electron contribution =    -109.30084559 Ry
     hartree contribution      =      80.17199605 Ry
     xc contribution           =     -59.92579576 Ry
     ewald contribution        =    -265.92436766 Ry
     one-center paw contrib.   =     -27.31230015 Ry

     convergence has been achieved in  16 iterations

     negative rho (up, down):  6.620E-02 0.000E+00

     Forces acting on atoms (cartesian axes, Ry/au):

     atom    1 type  1   force =     0.00000000    0.00000000    0.00000000
     atom    2 type  2   force =     0.00000000    0.00000000    0.00000000
     atom    3 type  3   force =     0.00000000    0.00000000    0.00000000
     atom    4 type  3   force =     0.00000000    0.00000000    0.00000000
     atom    5 type  3   force =     0.00000000    0.00000000    0.00000000
     The non-local contrib.  to forces
     atom    1 type  1   force =     0.00000000    0.00000000    0.00000000
     atom    2 type  2   force =     0.00000000    0.00000000    0.00000000
     atom    3 type  3   force =     0.00000000    0.00000000    0.00000000
     atom    4 type  3   force =     0.00000000    0.00000000    0.00000000
     atom    5 type  3   force =     0.00000000    0.00000000    0.00000000
     The ionic contribution  to forces
     atom    1 type  1   force =    -0.00000000   -0.00000000   -0.00000000
     atom    2 type  2   force =    -0.00000000   -0.00000000   -0.00000000
     atom    3 type  3   force =     0.00000000    0.00000000   -0.00000000
     atom    4 type  3   force =     0.00000000   -0.00000000    0.00000000
     atom    5 type  3   force =    -0.00000000    0.00000000    0.00000000
     The local contribution  to forces
     atom    1 type  1   force =     0.00000000    0.00000000   -0.00000000
     atom    2 type  2   force =     0.00000000    0.00000000    0.00000000
     atom    3 type  3   force =     0.00000000    0.00000000   -0.00000000
     atom    4 type  3   force =     0.00000000    0.00000000    0.00000000
     atom    5 type  3   force =    -0.00000000    0.00000000    0.00000000
     The core correction contribution to forces
     atom    1 type  1   force =     0.00000000   -0.00000000   -0.00000000
     atom    2 type  2   force =     0.00000000    0.00000000    0.00000000
     atom    3 type  3   force =     0.00000000    0.00000000   -0.00000000
     atom    4 type  3   force =     0.00000000   -0.00000000    0.00000000
     atom    5 type  3   force =    -0.00000000    0.00000000    0.00000000
     The Hubbard contrib.    to forces
     atom    1 type  1   force =     0.00000000    0.00000000    0.00000000
     atom    2 type  2   force =     0.00000000    0.00000000    0.00000000
     atom    3 type  3   force =     0.00000000    0.00000000    0.00000000
     atom    4 type  3   force =     0.00000000    0.00000000    0.00000000
     atom    5 type  3   force =     0.00000000    0.00000000    0.00000000
     The SCF correction term to forces
     atom    1 type  1   force =     0.00000000    0.00000000    0.00000000
     atom    2 type  2   force =    -0.00000000   -0.00000000   -0.00000000
     atom    3 type  3   force =    -0.00000000   -0.00000000    0.00000000
     atom    4 type  3   force =    -0.00000000    0.00000000   -0.00000000
     atom    5 type  3   force =     0.00000000   -0.00000000   -0.00000000

     Total force =     0.000000     Total SCF correction =     0.000000


     Computing stress (Cartesian axis) and pressure


     negative rho (up, down):  6.620E-02 0.000E+00
          total   stress  (Ry/bohr**3)                   (kbar)     P=       -0.04
  -0.00000027   0.00000000   0.00000000           -0.04        0.00        0.00
   0.00000000  -0.00000027   0.00000000            0.00       -0.04        0.00
   0.00000000   0.00000000  -0.00000027            0.00        0.00       -0.04

     Energy error            =      5.4E-07 Ry
     Gradient error          =      0.0E+00 Ry/Bohr
     Cell gradient error     =      4.0E-02 kbar

     bfgs converged in   3 scf cycles and   2 bfgs steps
     (criteria: energy <  1.0E-04 Ry, force <  1.0E-03 Ry/Bohr, cell <  5.0E-01 kbar)

     End of BFGS Geometry Optimization

     Final enthalpy           =    -382.2971453919 Ry

     File ./QE_tmp/sro.bfgs deleted, as requested
Begin final coordinates
     new unit-cell volume =    402.80386 a.u.^3 (    59.68937 Ang^3 )
     density =      5.19003 g/cm^3

CELL_PARAMETERS (angstrom)
   3.908100056   0.000000000   0.000000000
   0.000000000   3.908100056   0.000000000
   0.000000000   0.000000000   3.908100056

ATOMIC_POSITIONS (crystal)
Sr            0.0000000000        0.0000000000        0.0000000000
Ru            0.5000000000        0.5000000000        0.5000000000
O             0.5000000000        0.5000000000        0.0000000000
O             0.5000000000        0.0000000000        0.5000000000
O             0.0000000000        0.5000000000        0.5000000000
End final coordinates



     Writing config-only to output data dir ./QE_tmp/sro.save/

     Final scf calculation at the relaxed structure.
     The G-vectors are recalculated for the final unit cell
     Results may differ from those at the preceding step.

     Parallelization info
     --------------------
     sticks:   dense  smooth     PW     G-vecs:    dense   smooth      PW
     Min         390     130     36                16434     3166     484
     Max         391     131     37                16439     3169     487
     Sum        3125    1041    293               131491    25341    3887

     Using Slab Decomposition



     bravais-lattice index     =            0
     lattice parameter (alat)  =       7.3045  a.u.
     unit-cell volume          =     402.8039 (a.u.)^3
     number of atoms/cell      =            5
     number of atomic types    =            3
     number of electrons       =        44.00
     number of Kohn-Sham states=           26
     kinetic-energy cutoff     =      60.0000  Ry
     charge density cutoff     =     720.0000  Ry
     scf convergence threshold =      1.0E-12
     mixing beta               =       0.1000
     number of iterations used =            8  local-TF  mixing
     press convergence thresh. =      5.0E-01
     Exchange-correlation= SLA  PW   PSX  PSC
                           (   1   4  10   8   0   0   0)

     celldm(1)=   7.304502  celldm(2)=   0.000000  celldm(3)=   0.000000
     celldm(4)=   0.000000  celldm(5)=   0.000000  celldm(6)=   0.000000

     crystal axes: (cart. coord. in units of alat)
               a(1) = (   1.011053   0.000000   0.000000 )  
               a(2) = (   0.000000   1.011053   0.000000 )  
               a(3) = (   0.000000   0.000000   1.011053 )  

     reciprocal axes: (cart. coord. in units 2 pi/alat)
               b(1) = (  0.989068  0.000000  0.000000 )  
               b(2) = (  0.000000  0.989068  0.000000 )  
               b(3) = (  0.000000  0.000000  0.989068 )  


     PseudoPot. # 1 for Sr read from file:
     ./Pseudos/sr_pbesol_v1.uspp.F.UPF
     MD5 check sum: 635bff1625df5273dba4129a01ed8c82
     Pseudo is Ultrasoft + core correction, Zval = 10.0
     Generated by new atomic code, or converted to UPF format
     Using radial grid of  883 points,  6 beta functions with: 
                l(1) =   0
                l(2) =   0
                l(3) =   1
                l(4) =   1
                l(5) =   2
                l(6) =   2
     Q(r) pseudized with  6 coefficients,  rinner =    1.400   1.400   1.400
                                                       1.400   1.400

     PseudoPot. # 2 for Ru read from file:
     ./Pseudos/Ru_ONCV_PBEsol-1.0.upf
     MD5 check sum: 8f986bf37b5af91b2f53a4f9afee5fd8
     Pseudo is Norm-conserving, Zval = 16.0
     Generated using ONCVPSP code by D. R. Hamann
     Using radial grid of 1440 points,  6 beta functions with: 
                l(1) =   0
                l(2) =   0
                l(3) =   1
                l(4) =   1
                l(5) =   2
                l(6) =   2

     PseudoPot. # 3 for O  read from file:
     ./Pseudos/O.pbesol-n-kjpaw_psl.0.1.UPF
     MD5 check sum: 81d73d1479e654e5638b0319f0d6c2c7
     Pseudo is Projector augmented-wave + core cor, Zval =  6.0
     Generated using "atomic" code by A. Dal Corso  v.6.0 svn rev. 13079
     Shape of augmentation charge: BESSEL
     Using radial grid of 1095 points,  4 beta functions with: 
                l(1) =   0
                l(2) =   0
                l(3) =   1
                l(4) =   1
     Q(r) pseudized with 0 coefficients 


     atomic species   valence    mass     pseudopotential
        Sr            10.00    87.62000     Sr( 1.00)
        Ru            16.00    50.94150     Ru( 1.00)
        O              6.00    15.99940     O ( 1.00)

     48 Sym. Ops., with inversion, found



   Cartesian axes

     site n.     atom                  positions (alat units)
         1           Sr  tau(   1) = (   0.0000000   0.0000000   0.0000000  )
         2           Ru  tau(   2) = (   0.5055265   0.5055265   0.5055265  )
         3           O   tau(   3) = (   0.5055265   0.5055265   0.0000000  )
         4           O   tau(   4) = (   0.5055265   0.0000000   0.5055265  )
         5           O   tau(   5) = (   0.0000000   0.5055265   0.5055265  )

     number of k points=    10  Methfessel-Paxton smearing, width (Ry)=  0.0200
                       cart. coord. in units 2pi/alat
        k(    1) = (   0.0000000   0.0000000   0.0000000), wk =   0.0160000
        k(    2) = (   0.0000000   0.0000000   0.1978136), wk =   0.0960000
        k(    3) = (   0.0000000   0.0000000   0.3956271), wk =   0.0960000
        k(    4) = (   0.0000000   0.1978136   0.1978136), wk =   0.1920000
        k(    5) = (   0.0000000   0.1978136   0.3956271), wk =   0.3840000
        k(    6) = (   0.0000000   0.3956271   0.3956271), wk =   0.1920000
        k(    7) = (   0.1978136   0.1978136   0.1978136), wk =   0.1280000
        k(    8) = (   0.1978136   0.1978136   0.3956271), wk =   0.3840000
        k(    9) = (   0.1978136   0.3956271   0.3956271), wk =   0.3840000
        k(   10) = (   0.3956271   0.3956271   0.3956271), wk =   0.1280000

     Dense  grid:   131491 G-vectors     FFT dimensions: (  64,  64,  64)

     Smooth grid:    25341 G-vectors     FFT dimensions: (  40,  40,  40)

     Estimated max dynamical RAM per process >      75.77 MB

     Estimated total dynamical RAM >     606.16 MB

     Initial potential from superposition of free atoms

     starting charge      43.9687, renormalised to      44.0000

     negative rho (up, down):  6.385E-02 0.000E+00
     Starting wfcs are   35 randomized atomic wfcs
     Checking if some PAW data can be deallocated... 

     total cpu time spent up to now is      127.4 secs

     per-process dynamical memory:    62.3 Mb

     Self-consistent Calculation

     iteration #  1     ecut=    60.00 Ry     beta= 0.10
     Davidson diagonalization with overlap
     ethr =  1.00E-06,  avg # of iterations = 13.6

     negative rho (up, down):  6.366E-02 0.000E+00

     total cpu time spent up to now is      130.5 secs

     total energy              =    -382.51105758 Ry
     estimated scf accuracy    <       1.11597481 Ry

     iteration #  2     ecut=    60.00 Ry     beta= 0.10
     Davidson diagonalization with overlap
     ethr =  2.54E-03,  avg # of iterations =  1.0

     negative rho (up, down):  6.265E-02 0.000E+00

     total cpu time spent up to now is      131.6 secs

     total energy              =    -382.15707297 Ry
     estimated scf accuracy    <       0.83100065 Ry

     iteration #  3     ecut=    60.00 Ry     beta= 0.10
     Davidson diagonalization with overlap
     ethr =  1.89E-03,  avg # of iterations =  2.0

     negative rho (up, down):  6.285E-02 0.000E+00

     total cpu time spent up to now is      132.9 secs

     total energy              =    -382.31587725 Ry
     estimated scf accuracy    <       0.07751994 Ry

     iteration #  4     ecut=    60.00 Ry     beta= 0.10
     Davidson diagonalization with overlap
     ethr =  1.76E-04,  avg # of iterations =  1.5

     negative rho (up, down):  6.390E-02 0.000E+00

     total cpu time spent up to now is      134.0 secs

     total energy              =    -382.30750420 Ry
     estimated scf accuracy    <       0.05312828 Ry

     iteration #  5     ecut=    60.00 Ry     beta= 0.10
     Davidson diagonalization with overlap
     ethr =  1.21E-04,  avg # of iterations =  3.1

     negative rho (up, down):  6.392E-02 0.000E+00

     total cpu time spent up to now is      135.3 secs

     total energy              =    -382.29798711 Ry
     estimated scf accuracy    <       0.12637891 Ry

     iteration #  6     ecut=    60.00 Ry     beta= 0.10
     Davidson diagonalization with overlap
     ethr =  1.21E-04,  avg # of iterations =  2.0

     negative rho (up, down):  6.459E-02 0.000E+00

     total cpu time spent up to now is      136.5 secs

     total energy              =    -382.29438150 Ry
     estimated scf accuracy    <       0.02644191 Ry

     iteration #  7     ecut=    60.00 Ry     beta= 0.10
     Davidson diagonalization with overlap
     ethr =  6.01E-05,  avg # of iterations =  2.0

     negative rho (up, down):  6.648E-02 0.000E+00

     total cpu time spent up to now is      137.8 secs

     total energy              =    -382.29651632 Ry
     estimated scf accuracy    <       0.00315530 Ry

     iteration #  8     ecut=    60.00 Ry     beta= 0.10
     Davidson diagonalization with overlap
     ethr =  7.17E-06,  avg # of iterations =  6.9

     negative rho (up, down):  6.640E-02 0.000E+00

     total cpu time spent up to now is      139.3 secs

     total energy              =    -382.29742507 Ry
     estimated scf accuracy    <       0.00023659 Ry

     iteration #  9     ecut=    60.00 Ry     beta= 0.10
     Davidson diagonalization with overlap
     ethr =  5.38E-07,  avg # of iterations =  2.6

     negative rho (up, down):  6.626E-02 0.000E+00

     total cpu time spent up to now is      140.6 secs

     total energy              =    -382.29742991 Ry
     estimated scf accuracy    <       0.00006494 Ry

     iteration # 10     ecut=    60.00 Ry     beta= 0.10
     Davidson diagonalization with overlap
     ethr =  1.48E-07,  avg # of iterations =  2.0

     negative rho (up, down):  6.616E-02 0.000E+00

     total cpu time spent up to now is      141.8 secs

     total energy              =    -382.29740214 Ry
     estimated scf accuracy    <       0.00014776 Ry

     iteration # 11     ecut=    60.00 Ry     beta= 0.10
     Davidson diagonalization with overlap
     ethr =  1.48E-07,  avg # of iterations =  2.5

     negative rho (up, down):  6.615E-02 0.000E+00

     total cpu time spent up to now is      143.1 secs

     total energy              =    -382.29742651 Ry
     estimated scf accuracy    <       0.00000160 Ry

     iteration # 12     ecut=    60.00 Ry     beta= 0.10
     Davidson diagonalization with overlap
     ethr =  3.63E-09,  avg # of iterations =  3.8

     negative rho (up, down):  6.616E-02 0.000E+00

     total cpu time spent up to now is      144.5 secs

     total energy              =    -382.29743271 Ry
     estimated scf accuracy    <       0.00000370 Ry

     iteration # 13     ecut=    60.00 Ry     beta= 0.10
     Davidson diagonalization with overlap
     ethr =  3.63E-09,  avg # of iterations =  2.0

     negative rho (up, down):  6.622E-02 0.000E+00

     total cpu time spent up to now is      145.9 secs

     total energy              =    -382.29743648 Ry
     estimated scf accuracy    <       0.00000048 Ry

     iteration # 14     ecut=    60.00 Ry     beta= 0.10
     Davidson diagonalization with overlap
     ethr =  1.09E-09,  avg # of iterations =  3.5

     negative rho (up, down):  6.622E-02 0.000E+00

     total cpu time spent up to now is      147.6 secs

     total energy              =    -382.29744043 Ry
     estimated scf accuracy    <       0.00000017 Ry

     iteration # 15     ecut=    60.00 Ry     beta= 0.10
     Davidson diagonalization with overlap
     ethr =  3.95E-10,  avg # of iterations =  1.5

     negative rho (up, down):  6.621E-02 0.000E+00

     total cpu time spent up to now is      148.9 secs

     total energy              =    -382.29744332 Ry
     estimated scf accuracy    <       0.00000022 Ry

     iteration # 16     ecut=    60.00 Ry     beta= 0.10
     Davidson diagonalization with overlap
     ethr =  3.95E-10,  avg # of iterations =  1.9

     negative rho (up, down):  6.621E-02 0.000E+00

     total cpu time spent up to now is      150.2 secs

     total energy              =    -382.29744569 Ry
     estimated scf accuracy    <       0.00000008 Ry

     iteration # 17     ecut=    60.00 Ry     beta= 0.10
     Davidson diagonalization with overlap
     ethr =  1.75E-10,  avg # of iterations =  2.2

     negative rho (up, down):  6.621E-02 0.000E+00

     total cpu time spent up to now is      151.5 secs

     total energy              =    -382.29744763 Ry
     estimated scf accuracy    <          2.4E-10 Ry

     iteration # 18     ecut=    60.00 Ry     beta= 0.10
     Davidson diagonalization with overlap
     ethr =  5.42E-13,  avg # of iterations =  4.9

     negative rho (up, down):  6.621E-02 0.000E+00

     total cpu time spent up to now is      153.3 secs

     total energy              =    -382.29744918 Ry
     estimated scf accuracy    <          4.0E-10 Ry

     iteration # 19     ecut=    60.00 Ry     beta= 0.10
     Davidson diagonalization with overlap
     ethr =  5.42E-13,  avg # of iterations =  2.1

     negative rho (up, down):  6.621E-02 0.000E+00

     total cpu time spent up to now is      154.6 secs

     total energy              =    -382.29745044 Ry
     estimated scf accuracy    <          7.2E-11 Ry

     iteration # 20     ecut=    60.00 Ry     beta= 0.10
     Davidson diagonalization with overlap
     ethr =  1.63E-13,  avg # of iterations =  2.6

     negative rho (up, down):  6.621E-02 0.000E+00

     total cpu time spent up to now is      156.0 secs

     total energy              =    -382.29745146 Ry
     estimated scf accuracy    <          3.3E-11 Ry

     iteration # 21     ecut=    60.00 Ry     beta= 0.10
     Davidson diagonalization with overlap
     ethr =  1.00E-13,  avg # of iterations =  3.1

     negative rho (up, down):  6.621E-02 0.000E+00

     total cpu time spent up to now is      157.5 secs

     total energy              =    -382.29745229 Ry
     estimated scf accuracy    <          1.5E-11 Ry

     iteration # 22     ecut=    60.00 Ry     beta= 0.10
     Davidson diagonalization with overlap
     ethr =  1.00E-13,  avg # of iterations =  2.0

     negative rho (up, down):  6.621E-02 0.000E+00

     total cpu time spent up to now is      158.7 secs

     total energy              =    -382.29745295 Ry
     estimated scf accuracy    <          2.4E-11 Ry

     iteration # 23     ecut=    60.00 Ry     beta= 0.10
     Davidson diagonalization with overlap
     ethr =  1.00E-13,  avg # of iterations =  1.9

     negative rho (up, down):  6.621E-02 0.000E+00

     total cpu time spent up to now is      160.0 secs

     total energy              =    -382.29745349 Ry
     estimated scf accuracy    <          1.9E-11 Ry

     iteration # 24     ecut=    60.00 Ry     beta= 0.10
     Davidson diagonalization with overlap
     ethr =  1.00E-13,  avg # of iterations =  2.0

     negative rho (up, down):  6.621E-02 0.000E+00

     total cpu time spent up to now is      161.2 secs

     total energy              =    -382.29745393 Ry
     estimated scf accuracy    <          9.0E-12 Ry

     iteration # 25     ecut=    60.00 Ry     beta= 0.10
     Davidson diagonalization with overlap
     ethr =  1.00E-13,  avg # of iterations =  1.9

     negative rho (up, down):  6.621E-02 0.000E+00

     total cpu time spent up to now is      162.3 secs

     total energy              =    -382.29745429 Ry
     estimated scf accuracy    <          1.4E-11 Ry

     iteration # 26     ecut=    60.00 Ry     beta= 0.10
     Davidson diagonalization with overlap
     ethr =  1.00E-13,  avg # of iterations =  3.5

     negative rho (up, down):  6.621E-02 0.000E+00

     total cpu time spent up to now is      163.8 secs

     total energy              =    -382.29745458 Ry
     estimated scf accuracy    <          7.1E-11 Ry

     iteration # 27     ecut=    60.00 Ry     beta= 0.10
     Davidson diagonalization with overlap
     ethr =  1.00E-13,  avg # of iterations =  1.3

     negative rho (up, down):  6.621E-02 0.000E+00

     total cpu time spent up to now is      164.9 secs

     total energy              =    -382.29745481 Ry
     estimated scf accuracy    <          5.5E-11 Ry

     iteration # 28     ecut=    60.00 Ry     beta= 0.10
     Davidson diagonalization with overlap
     ethr =  1.00E-13,  avg # of iterations =  1.1

     negative rho (up, down):  6.621E-02 0.000E+00

     total cpu time spent up to now is      166.1 secs

     total energy              =    -382.29745500 Ry
     estimated scf accuracy    <          6.3E-11 Ry

     iteration # 29     ecut=    60.00 Ry     beta= 0.10
     Davidson diagonalization with overlap
     ethr =  1.00E-13,  avg # of iterations =  1.0

     negative rho (up, down):  6.621E-02 0.000E+00

     total cpu time spent up to now is      167.3 secs

     total energy              =    -382.29745515 Ry
     estimated scf accuracy    <          7.0E-11 Ry

     iteration # 30     ecut=    60.00 Ry     beta= 0.10
     Davidson diagonalization with overlap
     ethr =  1.00E-13,  avg # of iterations =  1.0

     negative rho (up, down):  6.621E-02 0.000E+00

     total cpu time spent up to now is      168.4 secs

     total energy              =    -382.29745527 Ry
     estimated scf accuracy    <          7.1E-11 Ry

     iteration # 31     ecut=    60.00 Ry     beta= 0.10
     Davidson diagonalization with overlap
     ethr =  1.00E-13,  avg # of iterations =  1.0

     negative rho (up, down):  6.621E-02 0.000E+00

     total cpu time spent up to now is      169.6 secs

     total energy              =    -382.29745537 Ry
     estimated scf accuracy    <          4.7E-11 Ry

     iteration # 32     ecut=    60.00 Ry     beta= 0.10
     Davidson diagonalization with overlap
     ethr =  1.00E-13,  avg # of iterations =  1.0

     negative rho (up, down):  6.621E-02 0.000E+00

     total cpu time spent up to now is      170.8 secs

     total energy              =    -382.29745545 Ry
     estimated scf accuracy    <          6.2E-11 Ry

     iteration # 33     ecut=    60.00 Ry     beta= 0.10
     Davidson diagonalization with overlap
     ethr =  1.00E-13,  avg # of iterations =  1.0

     negative rho (up, down):  6.621E-02 0.000E+00

     total cpu time spent up to now is      171.9 secs

     total energy              =    -382.29745552 Ry
     estimated scf accuracy    <          5.6E-11 Ry

     iteration # 34     ecut=    60.00 Ry     beta= 0.10
     Davidson diagonalization with overlap
     ethr =  1.00E-13,  avg # of iterations =  1.0

     negative rho (up, down):  6.621E-02 0.000E+00

     total cpu time spent up to now is      173.1 secs

     total energy              =    -382.29745557 Ry
     estimated scf accuracy    <          3.5E-11 Ry

     iteration # 35     ecut=    60.00 Ry     beta= 0.10
     Davidson diagonalization with overlap
     ethr =  1.00E-13,  avg # of iterations =  1.0

     negative rho (up, down):  6.621E-02 0.000E+00

     total cpu time spent up to now is      174.1 secs

     total energy              =    -382.29745562 Ry
     estimated scf accuracy    <          3.0E-11 Ry

     iteration # 36     ecut=    60.00 Ry     beta= 0.10
     Davidson diagonalization with overlap
     ethr =  1.00E-13,  avg # of iterations =  1.0

     negative rho (up, down):  6.621E-02 0.000E+00

     total cpu time spent up to now is      175.2 secs

     total energy              =    -382.29745565 Ry
     estimated scf accuracy    <          3.6E-11 Ry

     iteration # 37     ecut=    60.00 Ry     beta= 0.10
     Davidson diagonalization with overlap
     ethr =  1.00E-13,  avg # of iterations =  2.0

     negative rho (up, down):  6.621E-02 0.000E+00

     total cpu time spent up to now is      176.5 secs

     total energy              =    -382.29745568 Ry
     estimated scf accuracy    <          1.1E-12 Ry

     iteration # 38     ecut=    60.00 Ry     beta= 0.10
     Davidson diagonalization with overlap
     ethr =  1.00E-13,  avg # of iterations =  1.0

     negative rho (up, down):  6.621E-02 0.000E+00

     total cpu time spent up to now is      177.5 secs

     End of self-consistent calculation

          k = 0.0000 0.0000 0.0000 (  3119 PWs)   bands (ev):

   -60.8939 -30.9388 -30.9388 -30.9388 -21.1360  -6.4154  -5.5307  -5.5307
    -3.1570  -3.1570  -3.1570   8.1002   8.1002   8.1002  10.0262  10.0262
    10.0262  10.4667  10.4667  10.4667  10.6105  10.6105  10.6105  13.3443
    13.3443  16.7632

          k = 0.0000 0.0000 0.1978 (  3150 PWs)   bands (ev):

   -60.8938 -30.9469 -30.9384 -30.9384 -21.1272  -6.4232  -5.5179  -5.4468
    -3.1404  -3.1404  -2.9729   7.0380   8.0315   8.0315   8.9590   8.9590
     9.5577   9.7251  10.3599  10.3599  10.4996  11.9852  11.9852  13.3500
    14.9467  17.3790

          k = 0.0000 0.0000 0.3956 (  3158 PWs)   bands (ev):

   -60.8936 -30.9599 -30.9377 -30.9377 -21.1130  -6.5442  -5.4972  -5.1171
    -3.1132  -3.1132  -2.7123   5.4693   7.9325   7.9325   8.2180   8.2180
     8.8040   9.3065  10.2397  10.2397  10.5541  13.2257  13.2257  13.3572
    16.3768  18.5443

          k = 0.0000 0.1978 0.1978 (  3163 PWs)   bands (ev):

   -60.8937 -30.9465 -30.9464 -30.9380 -21.1192  -6.3415  -5.4882  -5.4401
    -3.1219  -3.0646  -2.9198   6.9798   7.0162   7.9430   7.9431   8.5815
     9.4930   9.5353   9.8191  10.2767  11.8810  12.0463  12.2645  14.1464
    15.8387  17.8782

          k = 0.0000 0.1978 0.3956 (  3165 PWs)   bands (ev):

   -60.8935 -30.9594 -30.9457 -30.9373 -21.1062  -6.3436  -5.4365  -5.2334
    -3.0917  -3.0155  -2.7771   5.4577   6.8731   7.1764   7.8000   8.0118
     9.2279   9.3535   9.6812  10.2315  11.9361  13.2012  13.2179  14.3318
    17.2279  18.7949

          k = 0.0000 0.3956 0.3956 (  3151 PWs)   bands (ev):

   -60.8933 -30.9587 -30.9586 -30.9367 -21.0951  -5.9910  -5.4194  -5.3314
    -3.0565  -2.8798  -2.8406   5.3334   5.6029   6.0962   7.5868   7.6369
     9.0336   9.4921   9.6430  10.9917  13.1383  13.1949  13.5682  14.7706
    18.7561  19.2756

          k = 0.1978 0.1978 0.1978 (  3143 PWs)   bands (ev):

   -60.8935 -30.9461 -30.9459 -30.9459 -21.1117  -6.2110  -5.4396  -5.4396
    -3.1172  -3.1172  -2.8363   6.9027   6.9815   6.9815   7.9048   7.9048
     8.2536  10.0704  10.0704  10.4097  12.1748  12.4034  12.4034  15.8302
    15.8302  18.3554

          k = 0.1978 0.1978 0.3956 (  3174 PWs)   bands (ev):

   -60.8933 -30.9590 -30.9454 -30.9453 -21.0995  -6.1316  -5.3553  -5.2643
    -3.2087  -2.9803  -2.8266   5.4531   6.7435   7.0010   7.2791   7.2919
     8.1422   9.9929  10.0831  10.3837  12.4157  13.2366  13.3155  15.7987
    17.5121  19.1582

          k = 0.1978 0.3956 0.3956 (  3169 PWs)   bands (ev):

   -60.8932 -30.9582 -30.9582 -30.9446 -21.0886  -5.7530  -5.3137  -5.2426
    -3.2208  -3.0457  -2.9264   5.3379   5.6101   6.3055   7.0783   7.2124
     7.5407  10.1835  10.2809  11.0098  13.3349  13.3904  13.6733  16.5317
    18.7348  19.1244

          k = 0.3956 0.3956 0.3956 (  3169 PWs)   bands (ev):

   -60.8930 -30.9575 -30.9574 -30.9574 -21.0779  -5.3164  -5.1043  -5.1043
    -3.3508  -3.3508  -3.1853   5.3455   5.3455   5.9116   6.6077   6.7809
     6.7809  10.9429  10.9429  11.1002  13.8250  13.8649  13.8649  18.4802
    18.4802  18.6424

     the Fermi energy is    13.3057 ev

!    total energy              =    -382.29745580 Ry
     estimated scf accuracy    <          5.4E-13 Ry
     smearing contrib. (-TS)   =      -0.00583181 Ry
     internal energy E=F+TS    =    -382.29162399 Ry

     The total energy is F=E-TS. E is the sum of the following terms:
     one-electron contribution =    -109.30135046 Ry
     hartree contribution      =      80.17225344 Ry
     xc contribution           =     -59.92585271 Ry
     ewald contribution        =    -265.92436766 Ry
     one-center paw contrib.   =     -27.31230660 Ry

     convergence has been achieved in  38 iterations

     negative rho (up, down):  6.621E-02 0.000E+00

     Forces acting on atoms (cartesian axes, Ry/au):

     atom    1 type  1   force =     0.00000000    0.00000000    0.00000000
     atom    2 type  2   force =     0.00000000    0.00000000    0.00000000
     atom    3 type  3   force =     0.00000000    0.00000000    0.00000000
     atom    4 type  3   force =     0.00000000    0.00000000    0.00000000
     atom    5 type  3   force =     0.00000000    0.00000000    0.00000000
     The non-local contrib.  to forces
     atom    1 type  1   force =     0.00000000    0.00000000    0.00000000
     atom    2 type  2   force =     0.00000000    0.00000000    0.00000000
     atom    3 type  3   force =     0.00000000    0.00000000    0.00000000
     atom    4 type  3   force =     0.00000000    0.00000000    0.00000000
     atom    5 type  3   force =     0.00000000    0.00000000    0.00000000
     The ionic contribution  to forces
     atom    1 type  1   force =    -0.00000000   -0.00000000   -0.00000000
     atom    2 type  2   force =    -0.00000000   -0.00000000   -0.00000000
     atom    3 type  3   force =     0.00000000    0.00000000   -0.00000000
     atom    4 type  3   force =     0.00000000   -0.00000000    0.00000000
     atom    5 type  3   force =    -0.00000000    0.00000000    0.00000000
     The local contribution  to forces
     atom    1 type  1   force =    -0.00000000    0.00000000   -0.00000000
     atom    2 type  2   force =     0.00000000    0.00000000    0.00000000
     atom    3 type  3   force =     0.00000000    0.00000000    0.00000000
     atom    4 type  3   force =     0.00000000   -0.00000000    0.00000000
     atom    5 type  3   force =    -0.00000000    0.00000000    0.00000000
     The core correction contribution to forces
     atom    1 type  1   force =     0.00000000    0.00000000   -0.00000000
     atom    2 type  2   force =     0.00000000    0.00000000    0.00000000
     atom    3 type  3   force =     0.00000000    0.00000000    0.00000000
     atom    4 type  3   force =     0.00000000    0.00000000    0.00000000
     atom    5 type  3   force =    -0.00000000    0.00000000    0.00000000
     The Hubbard contrib.    to forces
     atom    1 type  1   force =     0.00000000    0.00000000    0.00000000
     atom    2 type  2   force =     0.00000000    0.00000000    0.00000000
     atom    3 type  3   force =     0.00000000    0.00000000    0.00000000
     atom    4 type  3   force =     0.00000000    0.00000000    0.00000000
     atom    5 type  3   force =     0.00000000    0.00000000    0.00000000
     The SCF correction term to forces
     atom    1 type  1   force =     0.00000000    0.00000000    0.00000000
     atom    2 type  2   force =    -0.00000000   -0.00000000    0.00000000
     atom    3 type  3   force =    -0.00000000   -0.00000000    0.00000000
     atom    4 type  3   force =    -0.00000000    0.00000000    0.00000000
     atom    5 type  3   force =     0.00000000   -0.00000000    0.00000000

     Total force =     0.000000     Total SCF correction =     0.000000


     Computing stress (Cartesian axis) and pressure


     negative rho (up, down):  6.621E-02 0.000E+00
          total   stress  (Ry/bohr**3)                   (kbar)     P=       -0.33
  -0.00000221   0.00000000   0.00000000           -0.33        0.00        0.00
   0.00000000  -0.00000221   0.00000000            0.00       -0.33        0.00
   0.00000000   0.00000000  -0.00000221            0.00        0.00       -0.33


     Writing all to output data dir ./QE_tmp/sro.save/

     init_run     :     10.11s CPU     10.26s WALL (       2 calls)
     electrons    :    123.16s CPU    130.96s WALL (       4 calls)
     update_pot   :     10.62s CPU     10.62s WALL (       2 calls)
     forces       :     11.43s CPU     11.57s WALL (       4 calls)
     stress       :     20.24s CPU     21.80s WALL (       4 calls)

     Called by init_run:
     wfcinit      :      0.80s CPU      0.82s WALL (       2 calls)
     potinit      :      4.14s CPU      4.14s WALL (       2 calls)
     hinit0       :      4.34s CPU      4.36s WALL (       2 calls)

     Called by electrons:
     c_bands      :     78.92s CPU     79.71s WALL (     100 calls)
     sum_band     :     23.73s CPU     27.33s WALL (     100 calls)
     v_of_rho     :      4.50s CPU      4.52s WALL (     104 calls)
     newd         :      8.34s CPU     11.86s WALL (     104 calls)
     PAW_pot      :      6.31s CPU      6.32s WALL (     106 calls)
     mix_rho      :      1.81s CPU      1.83s WALL (     100 calls)

     Called by c_bands:
     init_us_2    :      0.77s CPU      0.79s WALL (    2120 calls)
     init_us_2:cp :      0.77s CPU      0.78s WALL (    2120 calls)
     cegterg      :     76.67s CPU     77.43s WALL (    1000 calls)

     Called by *egterg:
     cdiaghg      :      4.89s CPU      4.93s WALL (    3609 calls)
     h_psi        :     59.72s CPU     60.39s WALL (    3649 calls)
     s_psi        :      1.30s CPU      1.31s WALL (    3649 calls)
     g_psi        :      0.35s CPU      0.35s WALL (    2629 calls)

     Called by h_psi:
     h_psi:calbec :      2.96s CPU      2.99s WALL (    3649 calls)
     vloc_psi     :     55.27s CPU     55.92s WALL (    3649 calls)
     add_vuspsi   :      1.37s CPU      1.38s WALL (    3649 calls)

     General routines
     calbec       :      5.59s CPU      5.62s WALL (    4869 calls)
     fft          :      8.97s CPU      8.99s WALL (    1446 calls)
     ffts         :      0.98s CPU      0.99s WALL (    2186 calls)
     fftw         :     61.19s CPU     61.87s WALL (  158118 calls)
     interpolate  :      0.39s CPU      0.39s WALL (     104 calls)

     Parallel routines

     PWSCF        :   2m56.43s CPU   3m 6.18s WALL


   This run was terminated on:  21:20:55  16Jun2025            

=------------------------------------------------------------------------------=
   JOB DONE.
=------------------------------------------------------------------------------=
