
     Program PWSCF v.7.2 starts on 16Jun2025 at 22:14: 2 

     This program is part of the open-source Quantum ESPRESSO suite
     for quantum simulation of materials; please cite
         "P. Giannozzi et al., J. Phys.:Condens. Matter 21 395502 (2009);
         "P. Giannozzi et al., J. Phys.:Condens. Matter 29 465901 (2017);
         "P. Giannozzi et al., J. Chem. Phys. 152 154105 (2020);
          URL http://www.quantum-espresso.org", 
     in publications or presentations arising from this work. More details at
     http://www.quantum-espresso.org/quote

     Parallel version (MPI & OpenMP), running on       8 processor cores
     Number of MPI processes:                 8
     Threads/MPI process:                     1

     MPI processes distributed on     1 nodes
     7108 MiB available memory on the printing compute node when the environment starts

     Reading input from sro.nscf.in
Warning: card &IONS ignored
Warning: card / ignored
Warning: card &CELL ignored
Warning: card / ignored

     Current dimensions of program PWSCF are:
     Max number of different atomic species (ntypx) = 10
     Max number of k-points (npk) =  40000
     Max angular momentum in pseudopotentials (lmaxx) =  4

     Atomic positions and unit cell read from directory:
     ./QE_tmp/sro.save/

     file O.pbesol-n-kjpaw_psl.0.1.UPF: wavefunction(s)  2P renormalized
     Message from routine setup:
     using ibrav=0 with symmetry is DISCOURAGED, use correct ibrav instead

     R & G space division:  proc/nbgrp/npool/nimage =       8
     Subspace diagonalization in iterative solution of the eigenvalue problem:
     a serial algorithm will be used


     Parallelization info
     --------------------
     sticks:   dense  smooth     PW     G-vecs:    dense   smooth      PW
     Min         390     130     43                16434     3166     617
     Max         391     131     44                16439     3169     620
     Sum        3125    1041    349               131491    25341    4945

     Using Slab Decomposition



     bravais-lattice index     =            0
     lattice parameter (alat)  =       7.3852  a.u.
     unit-cell volume          =     402.8039 (a.u.)^3
     number of atoms/cell      =            5
     number of atomic types    =            3
     number of electrons       =        44.00
     number of Kohn-Sham states=           50
     kinetic-energy cutoff     =      60.0000  Ry
     charge density cutoff     =     720.0000  Ry
     Exchange-correlation= SLA  PW   PSX  PSC
                           (   1   4  10   8   0   0   0)

     celldm(1)=   7.385239  celldm(2)=   0.000000  celldm(3)=   0.000000
     celldm(4)=   0.000000  celldm(5)=   0.000000  celldm(6)=   0.000000

     crystal axes: (cart. coord. in units of alat)
               a(1) = (   1.000000   0.000000   0.000000 )  
               a(2) = (   0.000000   1.000000   0.000000 )  
               a(3) = (   0.000000   0.000000   1.000000 )  

     reciprocal axes: (cart. coord. in units 2 pi/alat)
               b(1) = (  1.000000  0.000000  0.000000 )  
               b(2) = (  0.000000  1.000000  0.000000 )  
               b(3) = (  0.000000  0.000000  1.000000 )  


     PseudoPot. # 1 for Sr read from file:
     ./Pseudos/sr_pbesol_v1.uspp.F.UPF
     MD5 check sum: 635bff1625df5273dba4129a01ed8c82
     Pseudo is Ultrasoft + core correction, Zval = 10.0
     Generated by new atomic code, or converted to UPF format
     Using radial grid of  883 points,  6 beta functions with: 
                l(1) =   0
                l(2) =   0
                l(3) =   1
                l(4) =   1
                l(5) =   2
                l(6) =   2
     Q(r) pseudized with  6 coefficients,  rinner =    1.400   1.400   1.400
                                                       1.400   1.400

     PseudoPot. # 2 for Ru read from file:
     ./Pseudos/Ru_ONCV_PBEsol-1.0.upf
     MD5 check sum: 8f986bf37b5af91b2f53a4f9afee5fd8
     Pseudo is Norm-conserving, Zval = 16.0
     Generated using ONCVPSP code by D. R. Hamann
     Using radial grid of 1440 points,  6 beta functions with: 
                l(1) =   0
                l(2) =   0
                l(3) =   1
                l(4) =   1
                l(5) =   2
                l(6) =   2

     PseudoPot. # 3 for O  read from file:
     ./Pseudos/O.pbesol-n-kjpaw_psl.0.1.UPF
     MD5 check sum: 81d73d1479e654e5638b0319f0d6c2c7
     Pseudo is Projector augmented-wave + core cor, Zval =  6.0
     Generated using "atomic" code by A. Dal Corso  v.6.0 svn rev. 13079
     Shape of augmentation charge: BESSEL
     Using radial grid of 1095 points,  4 beta functions with: 
                l(1) =   0
                l(2) =   0
                l(3) =   1
                l(4) =   1
     Q(r) pseudized with 0 coefficients 


     atomic species   valence    mass     pseudopotential
        Sr            10.00    87.62000     Sr( 1.00)
        Ru            16.00    50.94150     Ru( 1.00)
        O              6.00    15.99940     O ( 1.00)

     48 Sym. Ops., with inversion, found


                                    s                        frac. trans.

      isym =  1     identity                                     

 cryst.   s( 1) = (     1          0          0      )
                  (     0          1          0      )
                  (     0          0          1      )

 cart.    s( 1) = (  1.0000000  0.0000000  0.0000000 )
                  (  0.0000000  1.0000000  0.0000000 )
                  (  0.0000000  0.0000000  1.0000000 )


      isym =  2     180 deg rotation - cart. axis [0,0,1]        

 cryst.   s( 2) = (    -1          0          0      )
                  (     0         -1          0      )
                  (     0          0          1      )

 cart.    s( 2) = ( -1.0000000  0.0000000  0.0000000 )
                  (  0.0000000 -1.0000000  0.0000000 )
                  (  0.0000000  0.0000000  1.0000000 )


      isym =  3     180 deg rotation - cart. axis [0,1,0]        

 cryst.   s( 3) = (    -1          0          0      )
                  (     0          1          0      )
                  (     0          0         -1      )

 cart.    s( 3) = ( -1.0000000  0.0000000  0.0000000 )
                  (  0.0000000  1.0000000  0.0000000 )
                  (  0.0000000  0.0000000 -1.0000000 )


      isym =  4     180 deg rotation - cart. axis [1,0,0]        

 cryst.   s( 4) = (     1          0          0      )
                  (     0         -1          0      )
                  (     0          0         -1      )

 cart.    s( 4) = (  1.0000000  0.0000000  0.0000000 )
                  (  0.0000000 -1.0000000  0.0000000 )
                  (  0.0000000  0.0000000 -1.0000000 )


      isym =  5     180 deg rotation - cart. axis [1,1,0]        

 cryst.   s( 5) = (     0          1          0      )
                  (     1          0          0      )
                  (     0          0         -1      )

 cart.    s( 5) = (  0.0000000  1.0000000  0.0000000 )
                  (  1.0000000  0.0000000  0.0000000 )
                  (  0.0000000  0.0000000 -1.0000000 )


      isym =  6     180 deg rotation - cart. axis [1,-1,0]       

 cryst.   s( 6) = (     0         -1          0      )
                  (    -1          0          0      )
                  (     0          0         -1      )

 cart.    s( 6) = (  0.0000000 -1.0000000  0.0000000 )
                  ( -1.0000000  0.0000000  0.0000000 )
                  (  0.0000000  0.0000000 -1.0000000 )


      isym =  7      90 deg rotation - cart. axis [0,0,-1]       

 cryst.   s( 7) = (     0         -1          0      )
                  (     1          0          0      )
                  (     0          0          1      )

 cart.    s( 7) = (  0.0000000  1.0000000  0.0000000 )
                  ( -1.0000000  0.0000000  0.0000000 )
                  (  0.0000000  0.0000000  1.0000000 )


      isym =  8      90 deg rotation - cart. axis [0,0,1]        

 cryst.   s( 8) = (     0          1          0      )
                  (    -1          0          0      )
                  (     0          0          1      )

 cart.    s( 8) = (  0.0000000 -1.0000000  0.0000000 )
                  (  1.0000000  0.0000000  0.0000000 )
                  (  0.0000000  0.0000000  1.0000000 )


      isym =  9     180 deg rotation - cart. axis [1,0,1]        

 cryst.   s( 9) = (     0          0          1      )
                  (     0         -1          0      )
                  (     1          0          0      )

 cart.    s( 9) = (  0.0000000  0.0000000  1.0000000 )
                  (  0.0000000 -1.0000000  0.0000000 )
                  (  1.0000000  0.0000000  0.0000000 )


      isym = 10     180 deg rotation - cart. axis [-1,0,1]       

 cryst.   s(10) = (     0          0         -1      )
                  (     0         -1          0      )
                  (    -1          0          0      )

 cart.    s(10) = (  0.0000000  0.0000000 -1.0000000 )
                  (  0.0000000 -1.0000000  0.0000000 )
                  ( -1.0000000  0.0000000  0.0000000 )


      isym = 11      90 deg rotation - cart. axis [0,1,0]        

 cryst.   s(11) = (     0          0         -1      )
                  (     0          1          0      )
                  (     1          0          0      )

 cart.    s(11) = (  0.0000000  0.0000000  1.0000000 )
                  (  0.0000000  1.0000000  0.0000000 )
                  ( -1.0000000  0.0000000  0.0000000 )


      isym = 12      90 deg rotation - cart. axis [0,-1,0]       

 cryst.   s(12) = (     0          0          1      )
                  (     0          1          0      )
                  (    -1          0          0      )

 cart.    s(12) = (  0.0000000  0.0000000 -1.0000000 )
                  (  0.0000000  1.0000000  0.0000000 )
                  (  1.0000000  0.0000000  0.0000000 )


      isym = 13     180 deg rotation - cart. axis [0,1,1]        

 cryst.   s(13) = (    -1          0          0      )
                  (     0          0          1      )
                  (     0          1          0      )

 cart.    s(13) = ( -1.0000000  0.0000000  0.0000000 )
                  (  0.0000000  0.0000000  1.0000000 )
                  (  0.0000000  1.0000000  0.0000000 )


      isym = 14     180 deg rotation - cart. axis [0,1,-1]       

 cryst.   s(14) = (    -1          0          0      )
                  (     0          0         -1      )
                  (     0         -1          0      )

 cart.    s(14) = ( -1.0000000  0.0000000  0.0000000 )
                  (  0.0000000  0.0000000 -1.0000000 )
                  (  0.0000000 -1.0000000  0.0000000 )


      isym = 15      90 deg rotation - cart. axis [-1,0,0]       

 cryst.   s(15) = (     1          0          0      )
                  (     0          0         -1      )
                  (     0          1          0      )

 cart.    s(15) = (  1.0000000  0.0000000  0.0000000 )
                  (  0.0000000  0.0000000  1.0000000 )
                  (  0.0000000 -1.0000000  0.0000000 )


      isym = 16      90 deg rotation - cart. axis [1,0,0]        

 cryst.   s(16) = (     1          0          0      )
                  (     0          0          1      )
                  (     0         -1          0      )

 cart.    s(16) = (  1.0000000  0.0000000  0.0000000 )
                  (  0.0000000  0.0000000 -1.0000000 )
                  (  0.0000000  1.0000000  0.0000000 )


      isym = 17     120 deg rotation - cart. axis [-1,-1,-1]     

 cryst.   s(17) = (     0          0          1      )
                  (     1          0          0      )
                  (     0          1          0      )

 cart.    s(17) = (  0.0000000  1.0000000  0.0000000 )
                  (  0.0000000  0.0000000  1.0000000 )
                  (  1.0000000  0.0000000  0.0000000 )


      isym = 18     120 deg rotation - cart. axis [-1,1,1]       

 cryst.   s(18) = (     0          0         -1      )
                  (    -1          0          0      )
                  (     0          1          0      )

 cart.    s(18) = (  0.0000000 -1.0000000  0.0000000 )
                  (  0.0000000  0.0000000  1.0000000 )
                  ( -1.0000000  0.0000000  0.0000000 )


      isym = 19     120 deg rotation - cart. axis [1,1,-1]       

 cryst.   s(19) = (     0          0         -1      )
                  (     1          0          0      )
                  (     0         -1          0      )

 cart.    s(19) = (  0.0000000  1.0000000  0.0000000 )
                  (  0.0000000  0.0000000 -1.0000000 )
                  ( -1.0000000  0.0000000  0.0000000 )


      isym = 20     120 deg rotation - cart. axis [1,-1,1]       

 cryst.   s(20) = (     0          0          1      )
                  (    -1          0          0      )
                  (     0         -1          0      )

 cart.    s(20) = (  0.0000000 -1.0000000  0.0000000 )
                  (  0.0000000  0.0000000 -1.0000000 )
                  (  1.0000000  0.0000000  0.0000000 )


      isym = 21     120 deg rotation - cart. axis [1,1,1]        

 cryst.   s(21) = (     0          1          0      )
                  (     0          0          1      )
                  (     1          0          0      )

 cart.    s(21) = (  0.0000000  0.0000000  1.0000000 )
                  (  1.0000000  0.0000000  0.0000000 )
                  (  0.0000000  1.0000000  0.0000000 )


      isym = 22     120 deg rotation - cart. axis [-1,1,-1]      

 cryst.   s(22) = (     0         -1          0      )
                  (     0          0         -1      )
                  (     1          0          0      )

 cart.    s(22) = (  0.0000000  0.0000000  1.0000000 )
                  ( -1.0000000  0.0000000  0.0000000 )
                  (  0.0000000 -1.0000000  0.0000000 )


      isym = 23     120 deg rotation - cart. axis [1,-1,-1]      

 cryst.   s(23) = (     0         -1          0      )
                  (     0          0          1      )
                  (    -1          0          0      )

 cart.    s(23) = (  0.0000000  0.0000000 -1.0000000 )
                  ( -1.0000000  0.0000000  0.0000000 )
                  (  0.0000000  1.0000000  0.0000000 )


      isym = 24     120 deg rotation - cart. axis [-1,-1,1]      

 cryst.   s(24) = (     0          1          0      )
                  (     0          0         -1      )
                  (    -1          0          0      )

 cart.    s(24) = (  0.0000000  0.0000000 -1.0000000 )
                  (  1.0000000  0.0000000  0.0000000 )
                  (  0.0000000 -1.0000000  0.0000000 )


      isym = 25     inversion                                    

 cryst.   s(25) = (    -1          0          0      )
                  (     0         -1          0      )
                  (     0          0         -1      )

 cart.    s(25) = ( -1.0000000  0.0000000  0.0000000 )
                  (  0.0000000 -1.0000000  0.0000000 )
                  (  0.0000000  0.0000000 -1.0000000 )


      isym = 26     inv. 180 deg rotation - cart. axis [0,0,1]   

 cryst.   s(26) = (     1          0          0      )
                  (     0          1          0      )
                  (     0          0         -1      )

 cart.    s(26) = (  1.0000000  0.0000000  0.0000000 )
                  (  0.0000000  1.0000000  0.0000000 )
                  (  0.0000000  0.0000000 -1.0000000 )


      isym = 27     inv. 180 deg rotation - cart. axis [0,1,0]   

 cryst.   s(27) = (     1          0          0      )
                  (     0         -1          0      )
                  (     0          0          1      )

 cart.    s(27) = (  1.0000000  0.0000000  0.0000000 )
                  (  0.0000000 -1.0000000  0.0000000 )
                  (  0.0000000  0.0000000  1.0000000 )


      isym = 28     inv. 180 deg rotation - cart. axis [1,0,0]   

 cryst.   s(28) = (    -1          0          0      )
                  (     0          1          0      )
                  (     0          0          1      )

 cart.    s(28) = ( -1.0000000  0.0000000  0.0000000 )
                  (  0.0000000  1.0000000  0.0000000 )
                  (  0.0000000  0.0000000  1.0000000 )


      isym = 29     inv. 180 deg rotation - cart. axis [1,1,0]   

 cryst.   s(29) = (     0         -1          0      )
                  (    -1          0          0      )
                  (     0          0          1      )

 cart.    s(29) = (  0.0000000 -1.0000000  0.0000000 )
                  ( -1.0000000  0.0000000  0.0000000 )
                  (  0.0000000  0.0000000  1.0000000 )


      isym = 30     inv. 180 deg rotation - cart. axis [1,-1,0]  

 cryst.   s(30) = (     0          1          0      )
                  (     1          0          0      )
                  (     0          0          1      )

 cart.    s(30) = (  0.0000000  1.0000000  0.0000000 )
                  (  1.0000000  0.0000000  0.0000000 )
                  (  0.0000000  0.0000000  1.0000000 )


      isym = 31     inv.  90 deg rotation - cart. axis [0,0,-1]  

 cryst.   s(31) = (     0          1          0      )
                  (    -1          0          0      )
                  (     0          0         -1      )

 cart.    s(31) = (  0.0000000 -1.0000000  0.0000000 )
                  (  1.0000000  0.0000000  0.0000000 )
                  (  0.0000000  0.0000000 -1.0000000 )


      isym = 32     inv.  90 deg rotation - cart. axis [0,0,1]   

 cryst.   s(32) = (     0         -1          0      )
                  (     1          0          0      )
                  (     0          0         -1      )

 cart.    s(32) = (  0.0000000  1.0000000  0.0000000 )
                  ( -1.0000000  0.0000000  0.0000000 )
                  (  0.0000000  0.0000000 -1.0000000 )


      isym = 33     inv. 180 deg rotation - cart. axis [1,0,1]   

 cryst.   s(33) = (     0          0         -1      )
                  (     0          1          0      )
                  (    -1          0          0      )

 cart.    s(33) = (  0.0000000  0.0000000 -1.0000000 )
                  (  0.0000000  1.0000000  0.0000000 )
                  ( -1.0000000  0.0000000  0.0000000 )


      isym = 34     inv. 180 deg rotation - cart. axis [-1,0,1]  

 cryst.   s(34) = (     0          0          1      )
                  (     0          1          0      )
                  (     1          0          0      )

 cart.    s(34) = (  0.0000000  0.0000000  1.0000000 )
                  (  0.0000000  1.0000000  0.0000000 )
                  (  1.0000000  0.0000000  0.0000000 )


      isym = 35     inv.  90 deg rotation - cart. axis [0,1,0]   

 cryst.   s(35) = (     0          0          1      )
                  (     0         -1          0      )
                  (    -1          0          0      )

 cart.    s(35) = (  0.0000000  0.0000000 -1.0000000 )
                  (  0.0000000 -1.0000000  0.0000000 )
                  (  1.0000000  0.0000000  0.0000000 )


      isym = 36     inv.  90 deg rotation - cart. axis [0,-1,0]  

 cryst.   s(36) = (     0          0         -1      )
                  (     0         -1          0      )
                  (     1          0          0      )

 cart.    s(36) = (  0.0000000  0.0000000  1.0000000 )
                  (  0.0000000 -1.0000000  0.0000000 )
                  ( -1.0000000  0.0000000  0.0000000 )


      isym = 37     inv. 180 deg rotation - cart. axis [0,1,1]   

 cryst.   s(37) = (     1          0          0      )
                  (     0          0         -1      )
                  (     0         -1          0      )

 cart.    s(37) = (  1.0000000  0.0000000  0.0000000 )
                  (  0.0000000  0.0000000 -1.0000000 )
                  (  0.0000000 -1.0000000  0.0000000 )


      isym = 38     inv. 180 deg rotation - cart. axis [0,1,-1]  

 cryst.   s(38) = (     1          0          0      )
                  (     0          0          1      )
                  (     0          1          0      )

 cart.    s(38) = (  1.0000000  0.0000000  0.0000000 )
                  (  0.0000000  0.0000000  1.0000000 )
                  (  0.0000000  1.0000000  0.0000000 )


      isym = 39     inv.  90 deg rotation - cart. axis [-1,0,0]  

 cryst.   s(39) = (    -1          0          0      )
                  (     0          0          1      )
                  (     0         -1          0      )

 cart.    s(39) = ( -1.0000000  0.0000000  0.0000000 )
                  (  0.0000000  0.0000000 -1.0000000 )
                  (  0.0000000  1.0000000  0.0000000 )


      isym = 40     inv.  90 deg rotation - cart. axis [1,0,0]   

 cryst.   s(40) = (    -1          0          0      )
                  (     0          0         -1      )
                  (     0          1          0      )

 cart.    s(40) = ( -1.0000000  0.0000000  0.0000000 )
                  (  0.0000000  0.0000000  1.0000000 )
                  (  0.0000000 -1.0000000  0.0000000 )


      isym = 41     inv. 120 deg rotation - cart. axis [-1,-1,-1]

 cryst.   s(41) = (     0          0         -1      )
                  (    -1          0          0      )
                  (     0         -1          0      )

 cart.    s(41) = (  0.0000000 -1.0000000  0.0000000 )
                  (  0.0000000  0.0000000 -1.0000000 )
                  ( -1.0000000  0.0000000  0.0000000 )


      isym = 42     inv. 120 deg rotation - cart. axis [-1,1,1]  

 cryst.   s(42) = (     0          0          1      )
                  (     1          0          0      )
                  (     0         -1          0      )

 cart.    s(42) = (  0.0000000  1.0000000  0.0000000 )
                  (  0.0000000  0.0000000 -1.0000000 )
                  (  1.0000000  0.0000000  0.0000000 )


      isym = 43     inv. 120 deg rotation - cart. axis [1,1,-1]  

 cryst.   s(43) = (     0          0          1      )
                  (    -1          0          0      )
                  (     0          1          0      )

 cart.    s(43) = (  0.0000000 -1.0000000  0.0000000 )
                  (  0.0000000  0.0000000  1.0000000 )
                  (  1.0000000  0.0000000  0.0000000 )


      isym = 44     inv. 120 deg rotation - cart. axis [1,-1,1]  

 cryst.   s(44) = (     0          0         -1      )
                  (     1          0          0      )
                  (     0          1          0      )

 cart.    s(44) = (  0.0000000  1.0000000  0.0000000 )
                  (  0.0000000  0.0000000  1.0000000 )
                  ( -1.0000000  0.0000000  0.0000000 )


      isym = 45     inv. 120 deg rotation - cart. axis [1,1,1]   

 cryst.   s(45) = (     0         -1          0      )
                  (     0          0         -1      )
                  (    -1          0          0      )

 cart.    s(45) = (  0.0000000  0.0000000 -1.0000000 )
                  ( -1.0000000  0.0000000  0.0000000 )
                  (  0.0000000 -1.0000000  0.0000000 )


      isym = 46     inv. 120 deg rotation - cart. axis [-1,1,-1] 

 cryst.   s(46) = (     0          1          0      )
                  (     0          0          1      )
                  (    -1          0          0      )

 cart.    s(46) = (  0.0000000  0.0000000 -1.0000000 )
                  (  1.0000000  0.0000000  0.0000000 )
                  (  0.0000000  1.0000000  0.0000000 )


      isym = 47     inv. 120 deg rotation - cart. axis [1,-1,-1] 

 cryst.   s(47) = (     0          1          0      )
                  (     0          0         -1      )
                  (     1          0          0      )

 cart.    s(47) = (  0.0000000  0.0000000  1.0000000 )
                  (  1.0000000  0.0000000  0.0000000 )
                  (  0.0000000 -1.0000000  0.0000000 )


      isym = 48     inv. 120 deg rotation - cart. axis [-1,-1,1] 

 cryst.   s(48) = (     0         -1          0      )
                  (     0          0          1      )
                  (     1          0          0      )

 cart.    s(48) = (  0.0000000  0.0000000  1.0000000 )
                  ( -1.0000000  0.0000000  0.0000000 )
                  (  0.0000000  1.0000000  0.0000000 )


   Cartesian axes

     site n.     atom                  positions (alat units)
         1           Sr  tau(   1) = (   0.0000000   0.0000000   0.0000000  )
         2           Ru  tau(   2) = (   0.5000000   0.5000000   0.5000000  )
         3           O   tau(   3) = (   0.5000000   0.5000000   0.0000000  )
         4           O   tau(   4) = (   0.5000000   0.0000000   0.5000000  )
         5           O   tau(   5) = (   0.0000000   0.5000000   0.5000000  )

   Crystallographic axes

     site n.     atom                  positions (cryst. coord.)
         1           Sr  tau(   1) = (  0.0000000  0.0000000  0.0000000  )
         2           Ru  tau(   2) = (  0.5000000  0.5000000  0.5000000  )
         3           O   tau(   3) = (  0.5000000  0.5000000  0.0000000  )
         4           O   tau(   4) = (  0.5000000  0.0000000  0.5000000  )
         5           O   tau(   5) = (  0.0000000  0.5000000  0.5000000  )

     number of k points=   125  Methfessel-Paxton smearing, width (Ry)=  0.0200
                       cart. coord. in units 2pi/alat
        k(    1) = (   0.0000000   0.0000000   0.0000000), wk =   0.0160000
        k(    2) = (   0.0000000   0.0000000   0.2000000), wk =   0.0160000
        k(    3) = (   0.0000000   0.0000000   0.4000000), wk =   0.0160000
        k(    4) = (   0.0000000   0.0000000   0.6000000), wk =   0.0160000
        k(    5) = (   0.0000000   0.0000000   0.8000000), wk =   0.0160000
        k(    6) = (   0.0000000   0.2000000   0.0000000), wk =   0.0160000
        k(    7) = (   0.0000000   0.2000000   0.2000000), wk =   0.0160000
        k(    8) = (   0.0000000   0.2000000   0.4000000), wk =   0.0160000
        k(    9) = (   0.0000000   0.2000000   0.6000000), wk =   0.0160000
        k(   10) = (   0.0000000   0.2000000   0.8000000), wk =   0.0160000
        k(   11) = (   0.0000000   0.4000000   0.0000000), wk =   0.0160000
        k(   12) = (   0.0000000   0.4000000   0.2000000), wk =   0.0160000
        k(   13) = (   0.0000000   0.4000000   0.4000000), wk =   0.0160000
        k(   14) = (   0.0000000   0.4000000   0.6000000), wk =   0.0160000
        k(   15) = (   0.0000000   0.4000000   0.8000000), wk =   0.0160000
        k(   16) = (   0.0000000   0.6000000   0.0000000), wk =   0.0160000
        k(   17) = (   0.0000000   0.6000000   0.2000000), wk =   0.0160000
        k(   18) = (   0.0000000   0.6000000   0.4000000), wk =   0.0160000
        k(   19) = (   0.0000000   0.6000000   0.6000000), wk =   0.0160000
        k(   20) = (   0.0000000   0.6000000   0.8000000), wk =   0.0160000
        k(   21) = (   0.0000000   0.8000000   0.0000000), wk =   0.0160000
        k(   22) = (   0.0000000   0.8000000   0.2000000), wk =   0.0160000
        k(   23) = (   0.0000000   0.8000000   0.4000000), wk =   0.0160000
        k(   24) = (   0.0000000   0.8000000   0.6000000), wk =   0.0160000
        k(   25) = (   0.0000000   0.8000000   0.8000000), wk =   0.0160000
        k(   26) = (   0.2000000   0.0000000   0.0000000), wk =   0.0160000
        k(   27) = (   0.2000000   0.0000000   0.2000000), wk =   0.0160000
        k(   28) = (   0.2000000   0.0000000   0.4000000), wk =   0.0160000
        k(   29) = (   0.2000000   0.0000000   0.6000000), wk =   0.0160000
        k(   30) = (   0.2000000   0.0000000   0.8000000), wk =   0.0160000
        k(   31) = (   0.2000000   0.2000000   0.0000000), wk =   0.0160000
        k(   32) = (   0.2000000   0.2000000   0.2000000), wk =   0.0160000
        k(   33) = (   0.2000000   0.2000000   0.4000000), wk =   0.0160000
        k(   34) = (   0.2000000   0.2000000   0.6000000), wk =   0.0160000
        k(   35) = (   0.2000000   0.2000000   0.8000000), wk =   0.0160000
        k(   36) = (   0.2000000   0.4000000   0.0000000), wk =   0.0160000
        k(   37) = (   0.2000000   0.4000000   0.2000000), wk =   0.0160000
        k(   38) = (   0.2000000   0.4000000   0.4000000), wk =   0.0160000
        k(   39) = (   0.2000000   0.4000000   0.6000000), wk =   0.0160000
        k(   40) = (   0.2000000   0.4000000   0.8000000), wk =   0.0160000
        k(   41) = (   0.2000000   0.6000000   0.0000000), wk =   0.0160000
        k(   42) = (   0.2000000   0.6000000   0.2000000), wk =   0.0160000
        k(   43) = (   0.2000000   0.6000000   0.4000000), wk =   0.0160000
        k(   44) = (   0.2000000   0.6000000   0.6000000), wk =   0.0160000
        k(   45) = (   0.2000000   0.6000000   0.8000000), wk =   0.0160000
        k(   46) = (   0.2000000   0.8000000   0.0000000), wk =   0.0160000
        k(   47) = (   0.2000000   0.8000000   0.2000000), wk =   0.0160000
        k(   48) = (   0.2000000   0.8000000   0.4000000), wk =   0.0160000
        k(   49) = (   0.2000000   0.8000000   0.6000000), wk =   0.0160000
        k(   50) = (   0.2000000   0.8000000   0.8000000), wk =   0.0160000
        k(   51) = (   0.4000000   0.0000000   0.0000000), wk =   0.0160000
        k(   52) = (   0.4000000   0.0000000   0.2000000), wk =   0.0160000
        k(   53) = (   0.4000000   0.0000000   0.4000000), wk =   0.0160000
        k(   54) = (   0.4000000   0.0000000   0.6000000), wk =   0.0160000
        k(   55) = (   0.4000000   0.0000000   0.8000000), wk =   0.0160000
        k(   56) = (   0.4000000   0.2000000   0.0000000), wk =   0.0160000
        k(   57) = (   0.4000000   0.2000000   0.2000000), wk =   0.0160000
        k(   58) = (   0.4000000   0.2000000   0.4000000), wk =   0.0160000
        k(   59) = (   0.4000000   0.2000000   0.6000000), wk =   0.0160000
        k(   60) = (   0.4000000   0.2000000   0.8000000), wk =   0.0160000
        k(   61) = (   0.4000000   0.4000000   0.0000000), wk =   0.0160000
        k(   62) = (   0.4000000   0.4000000   0.2000000), wk =   0.0160000
        k(   63) = (   0.4000000   0.4000000   0.4000000), wk =   0.0160000
        k(   64) = (   0.4000000   0.4000000   0.6000000), wk =   0.0160000
        k(   65) = (   0.4000000   0.4000000   0.8000000), wk =   0.0160000
        k(   66) = (   0.4000000   0.6000000   0.0000000), wk =   0.0160000
        k(   67) = (   0.4000000   0.6000000   0.2000000), wk =   0.0160000
        k(   68) = (   0.4000000   0.6000000   0.4000000), wk =   0.0160000
        k(   69) = (   0.4000000   0.6000000   0.6000000), wk =   0.0160000
        k(   70) = (   0.4000000   0.6000000   0.8000000), wk =   0.0160000
        k(   71) = (   0.4000000   0.8000000   0.0000000), wk =   0.0160000
        k(   72) = (   0.4000000   0.8000000   0.2000000), wk =   0.0160000
        k(   73) = (   0.4000000   0.8000000   0.4000000), wk =   0.0160000
        k(   74) = (   0.4000000   0.8000000   0.6000000), wk =   0.0160000
        k(   75) = (   0.4000000   0.8000000   0.8000000), wk =   0.0160000
        k(   76) = (   0.6000000   0.0000000   0.0000000), wk =   0.0160000
        k(   77) = (   0.6000000   0.0000000   0.2000000), wk =   0.0160000
        k(   78) = (   0.6000000   0.0000000   0.4000000), wk =   0.0160000
        k(   79) = (   0.6000000   0.0000000   0.6000000), wk =   0.0160000
        k(   80) = (   0.6000000   0.0000000   0.8000000), wk =   0.0160000
        k(   81) = (   0.6000000   0.2000000   0.0000000), wk =   0.0160000
        k(   82) = (   0.6000000   0.2000000   0.2000000), wk =   0.0160000
        k(   83) = (   0.6000000   0.2000000   0.4000000), wk =   0.0160000
        k(   84) = (   0.6000000   0.2000000   0.6000000), wk =   0.0160000
        k(   85) = (   0.6000000   0.2000000   0.8000000), wk =   0.0160000
        k(   86) = (   0.6000000   0.4000000   0.0000000), wk =   0.0160000
        k(   87) = (   0.6000000   0.4000000   0.2000000), wk =   0.0160000
        k(   88) = (   0.6000000   0.4000000   0.4000000), wk =   0.0160000
        k(   89) = (   0.6000000   0.4000000   0.6000000), wk =   0.0160000
        k(   90) = (   0.6000000   0.4000000   0.8000000), wk =   0.0160000
        k(   91) = (   0.6000000   0.6000000   0.0000000), wk =   0.0160000
        k(   92) = (   0.6000000   0.6000000   0.2000000), wk =   0.0160000
        k(   93) = (   0.6000000   0.6000000   0.4000000), wk =   0.0160000
        k(   94) = (   0.6000000   0.6000000   0.6000000), wk =   0.0160000
        k(   95) = (   0.6000000   0.6000000   0.8000000), wk =   0.0160000
        k(   96) = (   0.6000000   0.8000000   0.0000000), wk =   0.0160000
        k(   97) = (   0.6000000   0.8000000   0.2000000), wk =   0.0160000
        k(   98) = (   0.6000000   0.8000000   0.4000000), wk =   0.0160000
        k(   99) = (   0.6000000   0.8000000   0.6000000), wk =   0.0160000
        k(  100) = (   0.6000000   0.8000000   0.8000000), wk =   0.0160000
        k(  101) = (   0.8000000   0.0000000   0.0000000), wk =   0.0160000
        k(  102) = (   0.8000000   0.0000000   0.2000000), wk =   0.0160000
        k(  103) = (   0.8000000   0.0000000   0.4000000), wk =   0.0160000
        k(  104) = (   0.8000000   0.0000000   0.6000000), wk =   0.0160000
        k(  105) = (   0.8000000   0.0000000   0.8000000), wk =   0.0160000
        k(  106) = (   0.8000000   0.2000000   0.0000000), wk =   0.0160000
        k(  107) = (   0.8000000   0.2000000   0.2000000), wk =   0.0160000
        k(  108) = (   0.8000000   0.2000000   0.4000000), wk =   0.0160000
        k(  109) = (   0.8000000   0.2000000   0.6000000), wk =   0.0160000
        k(  110) = (   0.8000000   0.2000000   0.8000000), wk =   0.0160000
        k(  111) = (   0.8000000   0.4000000   0.0000000), wk =   0.0160000
        k(  112) = (   0.8000000   0.4000000   0.2000000), wk =   0.0160000
        k(  113) = (   0.8000000   0.4000000   0.4000000), wk =   0.0160000
        k(  114) = (   0.8000000   0.4000000   0.6000000), wk =   0.0160000
        k(  115) = (   0.8000000   0.4000000   0.8000000), wk =   0.0160000
        k(  116) = (   0.8000000   0.6000000   0.0000000), wk =   0.0160000
        k(  117) = (   0.8000000   0.6000000   0.2000000), wk =   0.0160000
        k(  118) = (   0.8000000   0.6000000   0.4000000), wk =   0.0160000
        k(  119) = (   0.8000000   0.6000000   0.6000000), wk =   0.0160000
        k(  120) = (   0.8000000   0.6000000   0.8000000), wk =   0.0160000
        k(  121) = (   0.8000000   0.8000000   0.0000000), wk =   0.0160000
        k(  122) = (   0.8000000   0.8000000   0.2000000), wk =   0.0160000
        k(  123) = (   0.8000000   0.8000000   0.4000000), wk =   0.0160000
        k(  124) = (   0.8000000   0.8000000   0.6000000), wk =   0.0160000
        k(  125) = (   0.8000000   0.8000000   0.8000000), wk =   0.0160000

                       cryst. coord.
        k(    1) = (   0.0000000   0.0000000   0.0000000), wk =   0.0160000
        k(    2) = (   0.0000000   0.0000000   0.2000000), wk =   0.0160000
        k(    3) = (   0.0000000   0.0000000   0.4000000), wk =   0.0160000
        k(    4) = (   0.0000000   0.0000000   0.6000000), wk =   0.0160000
        k(    5) = (   0.0000000   0.0000000   0.8000000), wk =   0.0160000
        k(    6) = (   0.0000000   0.2000000   0.0000000), wk =   0.0160000
        k(    7) = (   0.0000000   0.2000000   0.2000000), wk =   0.0160000
        k(    8) = (   0.0000000   0.2000000   0.4000000), wk =   0.0160000
        k(    9) = (   0.0000000   0.2000000   0.6000000), wk =   0.0160000
        k(   10) = (   0.0000000   0.2000000   0.8000000), wk =   0.0160000
        k(   11) = (   0.0000000   0.4000000   0.0000000), wk =   0.0160000
        k(   12) = (   0.0000000   0.4000000   0.2000000), wk =   0.0160000
        k(   13) = (   0.0000000   0.4000000   0.4000000), wk =   0.0160000
        k(   14) = (   0.0000000   0.4000000   0.6000000), wk =   0.0160000
        k(   15) = (   0.0000000   0.4000000   0.8000000), wk =   0.0160000
        k(   16) = (   0.0000000   0.6000000   0.0000000), wk =   0.0160000
        k(   17) = (   0.0000000   0.6000000   0.2000000), wk =   0.0160000
        k(   18) = (   0.0000000   0.6000000   0.4000000), wk =   0.0160000
        k(   19) = (   0.0000000   0.6000000   0.6000000), wk =   0.0160000
        k(   20) = (   0.0000000   0.6000000   0.8000000), wk =   0.0160000
        k(   21) = (   0.0000000   0.8000000   0.0000000), wk =   0.0160000
        k(   22) = (   0.0000000   0.8000000   0.2000000), wk =   0.0160000
        k(   23) = (   0.0000000   0.8000000   0.4000000), wk =   0.0160000
        k(   24) = (   0.0000000   0.8000000   0.6000000), wk =   0.0160000
        k(   25) = (   0.0000000   0.8000000   0.8000000), wk =   0.0160000
        k(   26) = (   0.2000000   0.0000000   0.0000000), wk =   0.0160000
        k(   27) = (   0.2000000   0.0000000   0.2000000), wk =   0.0160000
        k(   28) = (   0.2000000   0.0000000   0.4000000), wk =   0.0160000
        k(   29) = (   0.2000000   0.0000000   0.6000000), wk =   0.0160000
        k(   30) = (   0.2000000   0.0000000   0.8000000), wk =   0.0160000
        k(   31) = (   0.2000000   0.2000000   0.0000000), wk =   0.0160000
        k(   32) = (   0.2000000   0.2000000   0.2000000), wk =   0.0160000
        k(   33) = (   0.2000000   0.2000000   0.4000000), wk =   0.0160000
        k(   34) = (   0.2000000   0.2000000   0.6000000), wk =   0.0160000
        k(   35) = (   0.2000000   0.2000000   0.8000000), wk =   0.0160000
        k(   36) = (   0.2000000   0.4000000   0.0000000), wk =   0.0160000
        k(   37) = (   0.2000000   0.4000000   0.2000000), wk =   0.0160000
        k(   38) = (   0.2000000   0.4000000   0.4000000), wk =   0.0160000
        k(   39) = (   0.2000000   0.4000000   0.6000000), wk =   0.0160000
        k(   40) = (   0.2000000   0.4000000   0.8000000), wk =   0.0160000
        k(   41) = (   0.2000000   0.6000000   0.0000000), wk =   0.0160000
        k(   42) = (   0.2000000   0.6000000   0.2000000), wk =   0.0160000
        k(   43) = (   0.2000000   0.6000000   0.4000000), wk =   0.0160000
        k(   44) = (   0.2000000   0.6000000   0.6000000), wk =   0.0160000
        k(   45) = (   0.2000000   0.6000000   0.8000000), wk =   0.0160000
        k(   46) = (   0.2000000   0.8000000   0.0000000), wk =   0.0160000
        k(   47) = (   0.2000000   0.8000000   0.2000000), wk =   0.0160000
        k(   48) = (   0.2000000   0.8000000   0.4000000), wk =   0.0160000
        k(   49) = (   0.2000000   0.8000000   0.6000000), wk =   0.0160000
        k(   50) = (   0.2000000   0.8000000   0.8000000), wk =   0.0160000
        k(   51) = (   0.4000000   0.0000000   0.0000000), wk =   0.0160000
        k(   52) = (   0.4000000   0.0000000   0.2000000), wk =   0.0160000
        k(   53) = (   0.4000000   0.0000000   0.4000000), wk =   0.0160000
        k(   54) = (   0.4000000   0.0000000   0.6000000), wk =   0.0160000
        k(   55) = (   0.4000000   0.0000000   0.8000000), wk =   0.0160000
        k(   56) = (   0.4000000   0.2000000   0.0000000), wk =   0.0160000
        k(   57) = (   0.4000000   0.2000000   0.2000000), wk =   0.0160000
        k(   58) = (   0.4000000   0.2000000   0.4000000), wk =   0.0160000
        k(   59) = (   0.4000000   0.2000000   0.6000000), wk =   0.0160000
        k(   60) = (   0.4000000   0.2000000   0.8000000), wk =   0.0160000
        k(   61) = (   0.4000000   0.4000000   0.0000000), wk =   0.0160000
        k(   62) = (   0.4000000   0.4000000   0.2000000), wk =   0.0160000
        k(   63) = (   0.4000000   0.4000000   0.4000000), wk =   0.0160000
        k(   64) = (   0.4000000   0.4000000   0.6000000), wk =   0.0160000
        k(   65) = (   0.4000000   0.4000000   0.8000000), wk =   0.0160000
        k(   66) = (   0.4000000   0.6000000   0.0000000), wk =   0.0160000
        k(   67) = (   0.4000000   0.6000000   0.2000000), wk =   0.0160000
        k(   68) = (   0.4000000   0.6000000   0.4000000), wk =   0.0160000
        k(   69) = (   0.4000000   0.6000000   0.6000000), wk =   0.0160000
        k(   70) = (   0.4000000   0.6000000   0.8000000), wk =   0.0160000
        k(   71) = (   0.4000000   0.8000000   0.0000000), wk =   0.0160000
        k(   72) = (   0.4000000   0.8000000   0.2000000), wk =   0.0160000
        k(   73) = (   0.4000000   0.8000000   0.4000000), wk =   0.0160000
        k(   74) = (   0.4000000   0.8000000   0.6000000), wk =   0.0160000
        k(   75) = (   0.4000000   0.8000000   0.8000000), wk =   0.0160000
        k(   76) = (   0.6000000   0.0000000   0.0000000), wk =   0.0160000
        k(   77) = (   0.6000000   0.0000000   0.2000000), wk =   0.0160000
        k(   78) = (   0.6000000   0.0000000   0.4000000), wk =   0.0160000
        k(   79) = (   0.6000000   0.0000000   0.6000000), wk =   0.0160000
        k(   80) = (   0.6000000   0.0000000   0.8000000), wk =   0.0160000
        k(   81) = (   0.6000000   0.2000000   0.0000000), wk =   0.0160000
        k(   82) = (   0.6000000   0.2000000   0.2000000), wk =   0.0160000
        k(   83) = (   0.6000000   0.2000000   0.4000000), wk =   0.0160000
        k(   84) = (   0.6000000   0.2000000   0.6000000), wk =   0.0160000
        k(   85) = (   0.6000000   0.2000000   0.8000000), wk =   0.0160000
        k(   86) = (   0.6000000   0.4000000   0.0000000), wk =   0.0160000
        k(   87) = (   0.6000000   0.4000000   0.2000000), wk =   0.0160000
        k(   88) = (   0.6000000   0.4000000   0.4000000), wk =   0.0160000
        k(   89) = (   0.6000000   0.4000000   0.6000000), wk =   0.0160000
        k(   90) = (   0.6000000   0.4000000   0.8000000), wk =   0.0160000
        k(   91) = (   0.6000000   0.6000000   0.0000000), wk =   0.0160000
        k(   92) = (   0.6000000   0.6000000   0.2000000), wk =   0.0160000
        k(   93) = (   0.6000000   0.6000000   0.4000000), wk =   0.0160000
        k(   94) = (   0.6000000   0.6000000   0.6000000), wk =   0.0160000
        k(   95) = (   0.6000000   0.6000000   0.8000000), wk =   0.0160000
        k(   96) = (   0.6000000   0.8000000   0.0000000), wk =   0.0160000
        k(   97) = (   0.6000000   0.8000000   0.2000000), wk =   0.0160000
        k(   98) = (   0.6000000   0.8000000   0.4000000), wk =   0.0160000
        k(   99) = (   0.6000000   0.8000000   0.6000000), wk =   0.0160000
        k(  100) = (   0.6000000   0.8000000   0.8000000), wk =   0.0160000
        k(  101) = (   0.8000000   0.0000000   0.0000000), wk =   0.0160000
        k(  102) = (   0.8000000   0.0000000   0.2000000), wk =   0.0160000
        k(  103) = (   0.8000000   0.0000000   0.4000000), wk =   0.0160000
        k(  104) = (   0.8000000   0.0000000   0.6000000), wk =   0.0160000
        k(  105) = (   0.8000000   0.0000000   0.8000000), wk =   0.0160000
        k(  106) = (   0.8000000   0.2000000   0.0000000), wk =   0.0160000
        k(  107) = (   0.8000000   0.2000000   0.2000000), wk =   0.0160000
        k(  108) = (   0.8000000   0.2000000   0.4000000), wk =   0.0160000
        k(  109) = (   0.8000000   0.2000000   0.6000000), wk =   0.0160000
        k(  110) = (   0.8000000   0.2000000   0.8000000), wk =   0.0160000
        k(  111) = (   0.8000000   0.4000000   0.0000000), wk =   0.0160000
        k(  112) = (   0.8000000   0.4000000   0.2000000), wk =   0.0160000
        k(  113) = (   0.8000000   0.4000000   0.4000000), wk =   0.0160000
        k(  114) = (   0.8000000   0.4000000   0.6000000), wk =   0.0160000
        k(  115) = (   0.8000000   0.4000000   0.8000000), wk =   0.0160000
        k(  116) = (   0.8000000   0.6000000   0.0000000), wk =   0.0160000
        k(  117) = (   0.8000000   0.6000000   0.2000000), wk =   0.0160000
        k(  118) = (   0.8000000   0.6000000   0.4000000), wk =   0.0160000
        k(  119) = (   0.8000000   0.6000000   0.6000000), wk =   0.0160000
        k(  120) = (   0.8000000   0.6000000   0.8000000), wk =   0.0160000
        k(  121) = (   0.8000000   0.8000000   0.0000000), wk =   0.0160000
        k(  122) = (   0.8000000   0.8000000   0.2000000), wk =   0.0160000
        k(  123) = (   0.8000000   0.8000000   0.4000000), wk =   0.0160000
        k(  124) = (   0.8000000   0.8000000   0.6000000), wk =   0.0160000
        k(  125) = (   0.8000000   0.8000000   0.8000000), wk =   0.0160000

     Dense  grid:   131491 G-vectors     FFT dimensions: (  64,  64,  64)

     Smooth grid:    25341 G-vectors     FFT dimensions: (  40,  40,  40)

     Dynamical RAM for                 wfc:       0.30 MB

     Dynamical RAM for     wfc (w. buffer):       0.30 MB

     Dynamical RAM for           str. fact:       0.75 MB

     Dynamical RAM for           local pot:       0.00 MB

     Dynamical RAM for          nlocal pot:       0.36 MB

     Dynamical RAM for                qrad:       6.46 MB

     Dynamical RAM for          rho,v,vnew:       1.50 MB

     Dynamical RAM for           G-vectors:       0.96 MB

     Dynamical RAM for          h,s,v(r/c):       0.46 MB

     Dynamical RAM for          <psi|beta>:       0.05 MB

     Dynamical RAM for                 psi:       0.60 MB

     Dynamical RAM for                hpsi:       0.60 MB

     Dynamical RAM for                spsi:       0.60 MB

     Dynamical RAM for      wfcinit/wfcrot:       0.66 MB

     Dynamical RAM for           addusdens:      47.41 MB

     Estimated static dynamical RAM per process >      12.59 MB

     Estimated max dynamical RAM per process >      60.00 MB

     Estimated total dynamical RAM >     480.02 MB

     The potential is recalculated from file :
     ./QE_tmp/sro.save/charge-density


     negative rho (up, down):  6.621E-02 0.000E+00
     Starting wfcs are   35 randomized atomic wfcs +   15 random wfcs
     Checking if some PAW data can be deallocated... 
       PAW data deallocated on    4 nodes for type:  3

     Band Structure Calculation
     Davidson diagonalization with overlap

     Computing kpt #:     1  of   125
     total cpu time spent up to now is        3.5 secs

     Computing kpt #:     2  of   125
     total cpu time spent up to now is        5.5 secs

     Computing kpt #:     3  of   125
     total cpu time spent up to now is        7.2 secs

     Computing kpt #:     4  of   125
     total cpu time spent up to now is        9.0 secs

     Computing kpt #:     5  of   125
     total cpu time spent up to now is       11.0 secs

     Computing kpt #:     6  of   125
     total cpu time spent up to now is       12.9 secs

     Computing kpt #:     7  of   125
     total cpu time spent up to now is       15.2 secs

     Computing kpt #:     8  of   125
     total cpu time spent up to now is       17.2 secs

     Computing kpt #:     9  of   125
     total cpu time spent up to now is       19.3 secs

     Computing kpt #:    10  of   125
     total cpu time spent up to now is       21.5 secs

     Computing kpt #:    11  of   125
     total cpu time spent up to now is       23.2 secs

     Computing kpt #:    12  of   125
     total cpu time spent up to now is       25.2 secs

     Computing kpt #:    13  of   125
     total cpu time spent up to now is       26.9 secs

     Computing kpt #:    14  of   125
     total cpu time spent up to now is       28.7 secs

     Computing kpt #:    15  of   125
     total cpu time spent up to now is       30.7 secs

     Computing kpt #:    16  of   125
     total cpu time spent up to now is       32.4 secs

     Computing kpt #:    17  of   125
     total cpu time spent up to now is       34.3 secs

     Computing kpt #:    18  of   125
     total cpu time spent up to now is       36.0 secs

     Computing kpt #:    19  of   125
     total cpu time spent up to now is       37.8 secs

     Computing kpt #:    20  of   125
     total cpu time spent up to now is       39.7 secs

     Computing kpt #:    21  of   125
     total cpu time spent up to now is       41.5 secs

     Computing kpt #:    22  of   125
     total cpu time spent up to now is       43.6 secs

     Computing kpt #:    23  of   125
     total cpu time spent up to now is       45.6 secs

     Computing kpt #:    24  of   125
     total cpu time spent up to now is       47.6 secs

     Computing kpt #:    25  of   125
     total cpu time spent up to now is       49.8 secs

     Computing kpt #:    26  of   125
     total cpu time spent up to now is       51.6 secs

     Computing kpt #:    27  of   125
     total cpu time spent up to now is       53.9 secs

     Computing kpt #:    28  of   125
     total cpu time spent up to now is       55.9 secs

     Computing kpt #:    29  of   125
     total cpu time spent up to now is       58.0 secs

     Computing kpt #:    30  of   125
     total cpu time spent up to now is       60.2 secs

     Computing kpt #:    31  of   125
     total cpu time spent up to now is       62.5 secs

     Computing kpt #:    32  of   125
     total cpu time spent up to now is       64.7 secs

     Computing kpt #:    33  of   125
     total cpu time spent up to now is       66.8 secs

     Computing kpt #:    34  of   125
     total cpu time spent up to now is       68.9 secs

     Computing kpt #:    35  of   125
     total cpu time spent up to now is       71.0 secs

     Computing kpt #:    36  of   125
     total cpu time spent up to now is       73.0 secs

     Computing kpt #:    37  of   125
     total cpu time spent up to now is       75.0 secs

     Computing kpt #:    38  of   125
     total cpu time spent up to now is       77.2 secs

     Computing kpt #:    39  of   125
     total cpu time spent up to now is       79.4 secs

     Computing kpt #:    40  of   125
     total cpu time spent up to now is       81.5 secs

     Computing kpt #:    41  of   125
     total cpu time spent up to now is       83.6 secs

     Computing kpt #:    42  of   125
     total cpu time spent up to now is       85.6 secs

     Computing kpt #:    43  of   125
     total cpu time spent up to now is       87.7 secs

     Computing kpt #:    44  of   125
     total cpu time spent up to now is       89.9 secs

     Computing kpt #:    45  of   125
     total cpu time spent up to now is       92.0 secs

     Computing kpt #:    46  of   125
     total cpu time spent up to now is       94.3 secs

     Computing kpt #:    47  of   125
     total cpu time spent up to now is       96.4 secs

     Computing kpt #:    48  of   125
     total cpu time spent up to now is       98.4 secs

     Computing kpt #:    49  of   125
     total cpu time spent up to now is      100.4 secs

     Computing kpt #:    50  of   125
     total cpu time spent up to now is      102.5 secs

     Computing kpt #:    51  of   125
     total cpu time spent up to now is      104.2 secs

     Computing kpt #:    52  of   125
     total cpu time spent up to now is      106.2 secs

     Computing kpt #:    53  of   125
     total cpu time spent up to now is      108.0 secs

     Computing kpt #:    54  of   125
     total cpu time spent up to now is      109.8 secs

     Computing kpt #:    55  of   125
     total cpu time spent up to now is      112.1 secs

     Computing kpt #:    56  of   125
     total cpu time spent up to now is      114.3 secs

     Computing kpt #:    57  of   125
     total cpu time spent up to now is      116.4 secs

     Computing kpt #:    58  of   125
     total cpu time spent up to now is      118.7 secs

     Computing kpt #:    59  of   125
     total cpu time spent up to now is      120.9 secs

     Computing kpt #:    60  of   125
     total cpu time spent up to now is      123.0 secs

     Computing kpt #:    61  of   125
     total cpu time spent up to now is      124.8 secs

     Computing kpt #:    62  of   125
     total cpu time spent up to now is      126.9 secs

     Computing kpt #:    63  of   125
     total cpu time spent up to now is      129.1 secs

     Computing kpt #:    64  of   125
     total cpu time spent up to now is      131.3 secs

     Computing kpt #:    65  of   125
     total cpu time spent up to now is      133.3 secs

     Computing kpt #:    66  of   125
     total cpu time spent up to now is      135.1 secs

     Computing kpt #:    67  of   125
     total cpu time spent up to now is      137.5 secs

     Computing kpt #:    68  of   125
     total cpu time spent up to now is      139.6 secs

     Computing kpt #:    69  of   125
     total cpu time spent up to now is      141.5 secs

     Computing kpt #:    70  of   125
     total cpu time spent up to now is      143.6 secs

     Computing kpt #:    71  of   125
     total cpu time spent up to now is      145.5 secs

     Computing kpt #:    72  of   125
     total cpu time spent up to now is      147.4 secs

     Computing kpt #:    73  of   125
     total cpu time spent up to now is      149.6 secs

     Computing kpt #:    74  of   125
     total cpu time spent up to now is      151.9 secs

     Computing kpt #:    75  of   125
     total cpu time spent up to now is      154.2 secs

     Computing kpt #:    76  of   125
     total cpu time spent up to now is      155.9 secs

     Computing kpt #:    77  of   125
     total cpu time spent up to now is      158.0 secs

     Computing kpt #:    78  of   125
     total cpu time spent up to now is      159.9 secs

     Computing kpt #:    79  of   125
     total cpu time spent up to now is      161.7 secs

     Computing kpt #:    80  of   125
     total cpu time spent up to now is      163.7 secs

     Computing kpt #:    81  of   125
     total cpu time spent up to now is      165.7 secs

     Computing kpt #:    82  of   125
     total cpu time spent up to now is      167.9 secs

     Computing kpt #:    83  of   125
     total cpu time spent up to now is      170.1 secs

     Computing kpt #:    84  of   125
     total cpu time spent up to now is      172.2 secs

     Computing kpt #:    85  of   125
     total cpu time spent up to now is      174.5 secs

     Computing kpt #:    86  of   125
     total cpu time spent up to now is      176.1 secs

     Computing kpt #:    87  of   125
     total cpu time spent up to now is      178.3 secs

     Computing kpt #:    88  of   125
     total cpu time spent up to now is      180.1 secs

     Computing kpt #:    89  of   125
     total cpu time spent up to now is      182.0 secs

     Computing kpt #:    90  of   125
     total cpu time spent up to now is      183.9 secs

     Computing kpt #:    91  of   125
     total cpu time spent up to now is      185.5 secs

     Computing kpt #:    92  of   125
     total cpu time spent up to now is      187.6 secs

     Computing kpt #:    93  of   125
     total cpu time spent up to now is      189.4 secs

     Computing kpt #:    94  of   125
     total cpu time spent up to now is      191.3 secs

     Computing kpt #:    95  of   125
     total cpu time spent up to now is      193.4 secs

     Computing kpt #:    96  of   125
     total cpu time spent up to now is      195.4 secs

     Computing kpt #:    97  of   125
     total cpu time spent up to now is      197.5 secs

     Computing kpt #:    98  of   125
     total cpu time spent up to now is      199.6 secs

     Computing kpt #:    99  of   125
     total cpu time spent up to now is      201.7 secs

     Computing kpt #:   100  of   125
     total cpu time spent up to now is      203.7 secs

     Computing kpt #:   101  of   125
     total cpu time spent up to now is      205.3 secs

     Computing kpt #:   102  of   125
     total cpu time spent up to now is      207.5 secs

     Computing kpt #:   103  of   125
     total cpu time spent up to now is      209.5 secs

     Computing kpt #:   104  of   125
     total cpu time spent up to now is      211.5 secs

     Computing kpt #:   105  of   125
     total cpu time spent up to now is      213.6 secs

     Computing kpt #:   106  of   125
     total cpu time spent up to now is      215.8 secs

     Computing kpt #:   107  of   125
     total cpu time spent up to now is      217.8 secs

     Computing kpt #:   108  of   125
     total cpu time spent up to now is      219.8 secs

     Computing kpt #:   109  of   125
     total cpu time spent up to now is      221.7 secs

     Computing kpt #:   110  of   125
     total cpu time spent up to now is      223.6 secs

     Computing kpt #:   111  of   125
     total cpu time spent up to now is      225.6 secs

     Computing kpt #:   112  of   125
     total cpu time spent up to now is      227.6 secs

     Computing kpt #:   113  of   125
     total cpu time spent up to now is      229.8 secs

     Computing kpt #:   114  of   125
     total cpu time spent up to now is      231.8 secs

     Computing kpt #:   115  of   125
     total cpu time spent up to now is      234.0 secs

     Computing kpt #:   116  of   125
     total cpu time spent up to now is      236.0 secs

     Computing kpt #:   117  of   125
     total cpu time spent up to now is      238.0 secs

     Computing kpt #:   118  of   125
     total cpu time spent up to now is      240.2 secs

     Computing kpt #:   119  of   125
     total cpu time spent up to now is      242.5 secs

     Computing kpt #:   120  of   125
     total cpu time spent up to now is      244.5 secs

     Computing kpt #:   121  of   125
     total cpu time spent up to now is      246.8 secs

     Computing kpt #:   122  of   125
     total cpu time spent up to now is      248.8 secs

     Computing kpt #:   123  of   125
     total cpu time spent up to now is      250.9 secs

     Computing kpt #:   124  of   125
     total cpu time spent up to now is      253.2 secs

     Computing kpt #:   125  of   125
     total cpu time spent up to now is      255.6 secs

     ethr =  2.27E-13,  avg # of iterations = 50.7

     total cpu time spent up to now is      255.6 secs

     End of band structure calculation

          k = 0.0000 0.0000 0.0000 (  3119 PWs)   bands (ev):

   -60.8939 -30.9388 -30.9388 -30.9388 -21.1360  -6.4154  -5.5307  -5.5307
    -3.1570  -3.1570  -3.1570   8.1002   8.1002   8.1002  10.0262  10.0262
    10.0262  10.4667  10.4667  10.4667  10.6105  10.6105  10.6105  13.3443
    13.3443  16.7632  16.7632  17.3186  19.8238  19.8238  19.8238  25.1631
    27.8047  27.8047  27.8047  31.5647  32.3221  32.3221  33.3744  33.3744
    33.3744  33.9369  33.9369  33.9369  36.8865  36.8865  36.8865  40.9192
    40.9192  40.9192

          k = 0.0000 0.0000 0.2000 (  3150 PWs)   bands (ev):

   -60.8938 -30.9469 -30.9384 -30.9384 -21.1272  -6.4232  -5.5179  -5.4468
    -3.1404  -3.1404  -2.9729   7.0380   8.0315   8.0315   8.9590   8.9590
     9.5577   9.7250  10.3599  10.3599  10.4996  11.9852  11.9852  13.3500
    14.9467  17.3790  17.4090  18.2450  19.6878  20.1773  20.1773  25.2273
    27.5968  27.8303  27.8303  30.0393  31.0251  31.8373  32.4255  32.4255
    32.9777  33.4538  33.4538  35.0486  36.5850  36.5850  37.6401  39.1606
    40.7135  40.7135

          k = 0.0000 0.0000 0.4000 (  3158 PWs)   bands (ev):

   -60.8936 -30.9600 -30.9377 -30.9377 -21.1130  -6.5442  -5.4972  -5.1171
    -3.1132  -3.1132  -2.7123   5.4693   7.9325   7.9325   8.2180   8.2180
     8.8039   9.3065  10.2397  10.2397  10.5541  13.2257  13.2257  13.3572
    16.3767  18.4740  18.5444  19.4710  20.5139  20.7151  20.7151  24.0743
    25.6434  28.1909  28.1909  30.2192  30.2192  30.5557  30.5956  30.7939
    32.8286  33.5454  33.5454  34.5011  36.2178  36.2178  36.3813  39.2716
    39.2716  39.5166

          k = 0.0000 0.0000 0.6000 (  3158 PWs)   bands (ev):

   -60.8936 -30.9600 -30.9377 -30.9377 -21.1130  -6.5442  -5.4972  -5.1171
    -3.1132  -3.1132  -2.7123   5.4693   7.9325   7.9325   8.2180   8.2180
     8.8039   9.3065  10.2397  10.2397  10.5541  13.2257  13.2257  13.3572
    16.3767  18.4740  18.5444  19.4710  20.5139  20.7151  20.7151  24.0743
    25.6434  28.1909  28.1909  30.2192  30.2192  30.5557  30.5956  30.7939
    32.8286  33.5454  33.5454  34.5011  36.2178  36.2178  36.3813  39.2716
    39.2716  39.5166

          k = 0.0000 0.0000 0.8000 (  3150 PWs)   bands (ev):

   -60.8938 -30.9469 -30.9384 -30.9384 -21.1272  -6.4232  -5.5179  -5.4468
    -3.1404  -3.1404  -2.9729   7.0380   8.0315   8.0315   8.9590   8.9590
     9.5577   9.7250  10.3599  10.3599  10.4996  11.9852  11.9852  13.3500
    14.9467  17.3790  17.4090  18.2450  19.6878  20.1773  20.1773  25.2273
    27.5968  27.8303  27.8303  30.0393  31.0251  31.8373  32.4255  32.4255
    32.9777  33.4538  33.4538  35.0486  36.5850  36.5850  37.6401  39.1606
    40.7135  40.7135

          k = 0.0000 0.2000 0.0000 (  3150 PWs)   bands (ev):

   -60.8938 -30.9469 -30.9384 -30.9384 -21.1272  -6.4232  -5.5179  -5.4468
    -3.1404  -3.1404  -2.9729   7.0380   8.0315   8.0315   8.9590   8.9590
     9.5577   9.7250  10.3599  10.3599  10.4996  11.9852  11.9852  13.3500
    14.9467  17.3790  17.4090  18.2450  19.6878  20.1772  20.1772  25.2273
    27.5968  27.8303  27.8303  30.0393  31.0251  31.8373  32.4255  32.4255
    32.9777  33.4538  33.4538  35.0486  36.5850  36.5850  37.6401  39.1606
    40.7135  40.7135

          k = 0.0000 0.2000 0.2000 (  3163 PWs)   bands (ev):

   -60.8937 -30.9465 -30.9464 -30.9380 -21.1192  -6.3415  -5.4882  -5.4401
    -3.1219  -3.0646  -2.9198   6.9798   7.0162   7.9430   7.9431   8.5815
     9.4930   9.5353   9.8191  10.2767  11.8810  12.0463  12.2645  14.1464
    15.8387  17.8782  18.0164  18.7303  19.9819  20.2105  20.5181  25.3687
    26.6669  27.4942  28.1515  29.2852  29.8274  30.8454  31.3874  32.6856
    33.0812  33.5754  33.7554  34.1563  36.3290  37.1391  38.3362  39.3365
    39.8869  41.3341

          k = 0.0000 0.2000 0.4000 (  3165 PWs)   bands (ev):

   -60.8935 -30.9595 -30.9457 -30.9373 -21.1062  -6.3436  -5.4365  -5.2334
    -3.0917  -3.0155  -2.7771   5.4577   6.8731   7.1764   7.8000   8.0118
     9.2279   9.3535   9.6812  10.2315  11.9361  13.2011  13.2179  14.3318
    17.2279  18.7949  19.1862  19.8804  19.9491  20.7560  21.3582  24.0545
    25.8608  26.8203  27.2970  28.3213  28.9508  29.5595  31.5486  32.5002
    32.9710  33.8006  34.2640  35.3949  35.4618  36.3336  37.0601  38.2749
    38.8874  41.6984

          k = 0.0000 0.2000 0.6000 (  3165 PWs)   bands (ev):

   -60.8935 -30.9595 -30.9457 -30.9373 -21.1062  -6.3436  -5.4365  -5.2334
    -3.0917  -3.0155  -2.7771   5.4577   6.8731   7.1764   7.8000   8.0118
     9.2279   9.3535   9.6812  10.2315  11.9361  13.2011  13.2179  14.3318
    17.2279  18.7949  19.1862  19.8804  19.9491  20.7560  21.3582  24.0545
    25.8608  26.8203  27.2970  28.3213  28.9508  29.5595  31.5486  32.5002
    32.9710  33.8006  34.2640  35.3949  35.4618  36.3336  37.0601  38.2749
    38.8874  41.6984

          k = 0.0000 0.2000 0.8000 (  3163 PWs)   bands (ev):

   -60.8937 -30.9465 -30.9464 -30.9380 -21.1192  -6.3415  -5.4882  -5.4401
    -3.1219  -3.0646  -2.9198   6.9798   7.0162   7.9430   7.9431   8.5815
     9.4930   9.5353   9.8191  10.2767  11.8810  12.0463  12.2645  14.1464
    15.8387  17.8782  18.0164  18.7303  19.9819  20.2105  20.5181  25.3687
    26.6669  27.4942  28.1515  29.2852  29.8274  30.8454  31.3874  32.6856
    33.0812  33.5754  33.7554  34.1563  36.3290  37.1391  38.3362  39.3365
    39.8869  41.3341

          k = 0.0000 0.4000 0.0000 (  3158 PWs)   bands (ev):

   -60.8936 -30.9600 -30.9377 -30.9377 -21.1130  -6.5442  -5.4972  -5.1171
    -3.1132  -3.1132  -2.7123   5.4693   7.9325   7.9325   8.2180   8.2180
     8.8040   9.3065  10.2397  10.2397  10.5541  13.2257  13.2257  13.3572
    16.3767  18.4740  18.5444  19.4710  20.5139  20.7151  20.7151  24.0743
    25.6434  28.1909  28.1909  30.2192  30.2192  30.5557  30.5956  30.7939
    32.8286  33.5454  33.5454  34.5011  36.2178  36.2178  36.3813  39.2716
    39.2716  39.5166

          k = 0.0000 0.4000 0.2000 (  3165 PWs)   bands (ev):

   -60.8935 -30.9595 -30.9457 -30.9373 -21.1062  -6.3436  -5.4365  -5.2334
    -3.0917  -3.0155  -2.7771   5.4577   6.8731   7.1764   7.8000   8.0118
     9.2279   9.3535   9.6812  10.2315  11.9361  13.2012  13.2179  14.3318
    17.2279  18.7949  19.1862  19.8804  19.9491  20.7560  21.3582  24.0545
    25.8608  26.8203  27.2970  28.3213  28.9508  29.5595  31.5486  32.5002
    32.9710  33.8006  34.2640  35.3949  35.4618  36.3336  37.0601  38.2749
    38.8874  41.6984

          k = 0.0000 0.4000 0.4000 (  3151 PWs)   bands (ev):

   -60.8933 -30.9587 -30.9586 -30.9367 -21.0951  -5.9910  -5.4194  -5.3314
    -3.0565  -2.8798  -2.8406   5.3334   5.6029   6.0962   7.5868   7.6369
     9.0336   9.4921   9.6430  10.9916  13.1383  13.1949  13.5682  14.7706
    18.7561  19.2756  19.5685  20.7500  20.7541  20.8834  21.9794  24.0288
    24.4830  25.9200  26.2754  26.3595  27.1436  28.2418  32.7813  33.8301
    34.4573  34.8552  34.8766  35.2064  35.5247  36.3645  36.5885  39.1394
    39.1814  39.4783

          k = 0.0000 0.4000 0.6000 (  3151 PWs)   bands (ev):

   -60.8933 -30.9587 -30.9586 -30.9367 -21.0951  -5.9910  -5.4194  -5.3314
    -3.0565  -2.8798  -2.8406   5.3334   5.6029   6.0962   7.5868   7.6369
     9.0336   9.4921   9.6430  10.9916  13.1383  13.1949  13.5682  14.7706
    18.7561  19.2756  19.5685  20.7500  20.7541  20.8834  21.9794  24.0288
    24.4830  25.9200  26.2754  26.3595  27.1436  28.2418  32.7813  33.8301
    34.4573  34.8552  34.8766  35.2064  35.5247  36.3645  36.5885  39.1394
    39.1814  39.4783

          k = 0.0000 0.4000 0.8000 (  3165 PWs)   bands (ev):

   -60.8935 -30.9595 -30.9457 -30.9373 -21.1062  -6.3436  -5.4365  -5.2334
    -3.0917  -3.0155  -2.7771   5.4577   6.8731   7.1764   7.8000   8.0118
     9.2279   9.3535   9.6812  10.2315  11.9361  13.2012  13.2179  14.3318
    17.2279  18.7949  19.1862  19.8804  19.9491  20.7560  21.3582  24.0545
    25.8608  26.8203  27.2970  28.3213  28.9508  29.5595  31.5486  32.5002
    32.9710  33.8006  34.2640  35.3949  35.4618  36.3336  37.0601  38.2749
    38.8874  41.6984

          k = 0.0000 0.6000 0.0000 (  3158 PWs)   bands (ev):

   -60.8936 -30.9600 -30.9377 -30.9377 -21.1130  -6.5442  -5.4972  -5.1171
    -3.1132  -3.1132  -2.7123   5.4693   7.9325   7.9325   8.2180   8.2180
     8.8040   9.3065  10.2397  10.2397  10.5541  13.2257  13.2257  13.3572
    16.3767  18.4740  18.5444  19.4710  20.5139  20.7151  20.7151  24.0743
    25.6434  28.1909  28.1909  30.2192  30.2192  30.5557  30.5956  30.7939
    32.8286  33.5454  33.5454  34.5011  36.2178  36.2178  36.3813  39.2716
    39.2716  39.5166

          k = 0.0000 0.6000 0.2000 (  3165 PWs)   bands (ev):

   -60.8935 -30.9595 -30.9457 -30.9373 -21.1062  -6.3436  -5.4365  -5.2334
    -3.0917  -3.0155  -2.7771   5.4577   6.8731   7.1764   7.8000   8.0118
     9.2279   9.3535   9.6812  10.2315  11.9361  13.2012  13.2179  14.3318
    17.2279  18.7949  19.1862  19.8804  19.9491  20.7560  21.3582  24.0545
    25.8608  26.8203  27.2970  28.3213  28.9508  29.5595  31.5486  32.5002
    32.9710  33.8006  34.2640  35.3949  35.4618  36.3336  37.0601  38.2749
    38.8874  41.6984

          k = 0.0000 0.6000 0.4000 (  3151 PWs)   bands (ev):

   -60.8933 -30.9587 -30.9586 -30.9367 -21.0951  -5.9910  -5.4194  -5.3314
    -3.0565  -2.8798  -2.8406   5.3334   5.6029   6.0962   7.5868   7.6369
     9.0336   9.4921   9.6430  10.9916  13.1383  13.1949  13.5682  14.7706
    18.7561  19.2756  19.5685  20.7500  20.7541  20.8834  21.9794  24.0288
    24.4830  25.9200  26.2754  26.3595  27.1436  28.2418  32.7813  33.8301
    34.4573  34.8552  34.8766  35.2064  35.5247  36.3645  36.5885  39.1394
    39.1814  39.4783

          k = 0.0000 0.6000 0.6000 (  3151 PWs)   bands (ev):

   -60.8933 -30.9587 -30.9586 -30.9367 -21.0951  -5.9910  -5.4194  -5.3314
    -3.0565  -2.8798  -2.8406   5.3334   5.6029   6.0962   7.5868   7.6369
     9.0336   9.4921   9.6430  10.9916  13.1383  13.1949  13.5682  14.7706
    18.7561  19.2756  19.5685  20.7500  20.7541  20.8834  21.9794  24.0288
    24.4830  25.9200  26.2754  26.3595  27.1436  28.2418  32.7813  33.8301
    34.4573  34.8552  34.8766  35.2064  35.5247  36.3645  36.5885  39.1394
    39.1814  39.4783

          k = 0.0000 0.6000 0.8000 (  3165 PWs)   bands (ev):

   -60.8935 -30.9595 -30.9457 -30.9373 -21.1062  -6.3436  -5.4365  -5.2334
    -3.0917  -3.0155  -2.7771   5.4577   6.8731   7.1764   7.8000   8.0118
     9.2279   9.3535   9.6812  10.2315  11.9361  13.2012  13.2179  14.3318
    17.2279  18.7949  19.1862  19.8804  19.9491  20.7560  21.3582  24.0545
    25.8608  26.8203  27.2970  28.3213  28.9508  29.5595  31.5486  32.5002
    32.9710  33.8006  34.2640  35.3949  35.4618  36.3336  37.0601  38.2749
    38.8874  41.6984

          k = 0.0000 0.8000 0.0000 (  3150 PWs)   bands (ev):

   -60.8938 -30.9469 -30.9384 -30.9384 -21.1272  -6.4232  -5.5179  -5.4468
    -3.1404  -3.1404  -2.9729   7.0380   8.0315   8.0315   8.9590   8.9590
     9.5577   9.7250  10.3599  10.3599  10.4996  11.9852  11.9852  13.3500
    14.9467  17.3790  17.4090  18.2450  19.6878  20.1772  20.1772  25.2273
    27.5968  27.8303  27.8303  30.0393  31.0251  31.8373  32.4255  32.4255
    32.9777  33.4538  33.4538  35.0486  36.5850  36.5850  37.6401  39.1606
    40.7135  40.7135

          k = 0.0000 0.8000 0.2000 (  3163 PWs)   bands (ev):

   -60.8937 -30.9465 -30.9464 -30.9380 -21.1192  -6.3415  -5.4882  -5.4401
    -3.1219  -3.0646  -2.9198   6.9798   7.0162   7.9430   7.9431   8.5815
     9.4930   9.5353   9.8191  10.2767  11.8810  12.0463  12.2645  14.1464
    15.8387  17.8782  18.0164  18.7303  19.9819  20.2105  20.5181  25.3687
    26.6669  27.4942  28.1515  29.2852  29.8274  30.8454  31.3874  32.6856
    33.0812  33.5754  33.7554  34.1563  36.3290  37.1391  38.3362  39.3365
    39.8869  41.3341

          k = 0.0000 0.8000 0.4000 (  3165 PWs)   bands (ev):

   -60.8935 -30.9595 -30.9457 -30.9373 -21.1062  -6.3436  -5.4365  -5.2334
    -3.0917  -3.0155  -2.7771   5.4577   6.8731   7.1764   7.8000   8.0118
     9.2279   9.3535   9.6812  10.2315  11.9361  13.2011  13.2179  14.3318
    17.2279  18.7949  19.1862  19.8804  19.9491  20.7560  21.3582  24.0545
    25.8608  26.8203  27.2970  28.3213  28.9508  29.5595  31.5486  32.5002
    32.9710  33.8006  34.2640  35.3949  35.4618  36.3336  37.0601  38.2749
    38.8874  41.6984

          k = 0.0000 0.8000 0.6000 (  3165 PWs)   bands (ev):

   -60.8935 -30.9595 -30.9457 -30.9373 -21.1062  -6.3436  -5.4365  -5.2334
    -3.0917  -3.0155  -2.7771   5.4577   6.8731   7.1764   7.8000   8.0118
     9.2279   9.3535   9.6812  10.2315  11.9361  13.2011  13.2179  14.3318
    17.2279  18.7949  19.1862  19.8804  19.9491  20.7560  21.3582  24.0545
    25.8608  26.8203  27.2970  28.3213  28.9508  29.5595  31.5486  32.5002
    32.9710  33.8006  34.2640  35.3949  35.4618  36.3336  37.0601  38.2749
    38.8874  41.6984

          k = 0.0000 0.8000 0.8000 (  3163 PWs)   bands (ev):

   -60.8937 -30.9465 -30.9464 -30.9380 -21.1192  -6.3415  -5.4882  -5.4401
    -3.1219  -3.0646  -2.9198   6.9798   7.0162   7.9430   7.9431   8.5815
     9.4930   9.5353   9.8191  10.2767  11.8810  12.0463  12.2645  14.1464
    15.8387  17.8782  18.0164  18.7303  19.9819  20.2105  20.5181  25.3687
    26.6669  27.4942  28.1515  29.2852  29.8274  30.8454  31.3874  32.6856
    33.0812  33.5754  33.7554  34.1563  36.3290  37.1391  38.3362  39.3365
    39.8869  41.3341

          k = 0.2000 0.0000 0.0000 (  3150 PWs)   bands (ev):

   -60.8938 -30.9469 -30.9384 -30.9384 -21.1272  -6.4232  -5.5179  -5.4468
    -3.1404  -3.1404  -2.9729   7.0380   8.0315   8.0315   8.9590   8.9590
     9.5577   9.7250  10.3599  10.3599  10.4996  11.9852  11.9852  13.3500
    14.9467  17.3790  17.4090  18.2450  19.6878  20.1772  20.1772  25.2273
    27.5968  27.8303  27.8303  30.0393  31.0251  31.8373  32.4255  32.4255
    32.9777  33.4538  33.4538  35.0486  36.5850  36.5850  37.6401  39.1606
    40.7135  40.7135

          k = 0.2000 0.0000 0.2000 (  3163 PWs)   bands (ev):

   -60.8937 -30.9465 -30.9464 -30.9380 -21.1192  -6.3415  -5.4882  -5.4401
    -3.1219  -3.0646  -2.9198   6.9798   7.0162   7.9430   7.9431   8.5815
     9.4930   9.5353   9.8191  10.2767  11.8810  12.0463  12.2645  14.1464
    15.8387  17.8782  18.0164  18.7303  19.9819  20.2105  20.5181  25.3687
    26.6669  27.4942  28.1515  29.2852  29.8274  30.8454  31.3874  32.6856
    33.0812  33.5754  33.7554  34.1563  36.3290  37.1391  38.3362  39.3365
    39.8869  41.3341

          k = 0.2000 0.0000 0.4000 (  3165 PWs)   bands (ev):

   -60.8935 -30.9595 -30.9457 -30.9373 -21.1062  -6.3436  -5.4365  -5.2334
    -3.0917  -3.0155  -2.7771   5.4577   6.8731   7.1764   7.8000   8.0118
     9.2279   9.3535   9.6812  10.2315  11.9361  13.2011  13.2179  14.3318
    17.2279  18.7949  19.1862  19.8804  19.9491  20.7560  21.3582  24.0545
    25.8608  26.8203  27.2970  28.3213  28.9508  29.5595  31.5486  32.5002
    32.9710  33.8006  34.2640  35.3949  35.4618  36.3336  37.0601  38.2749
    38.8874  41.6984

          k = 0.2000 0.0000 0.6000 (  3165 PWs)   bands (ev):

   -60.8935 -30.9595 -30.9457 -30.9373 -21.1062  -6.3436  -5.4365  -5.2334
    -3.0917  -3.0155  -2.7771   5.4577   6.8731   7.1764   7.8000   8.0118
     9.2279   9.3535   9.6812  10.2315  11.9361  13.2011  13.2179  14.3318
    17.2279  18.7949  19.1862  19.8804  19.9491  20.7560  21.3582  24.0545
    25.8608  26.8203  27.2970  28.3213  28.9508  29.5595  31.5486  32.5002
    32.9710  33.8006  34.2640  35.3949  35.4618  36.3336  37.0601  38.2749
    38.8874  41.6984

          k = 0.2000 0.0000 0.8000 (  3163 PWs)   bands (ev):

   -60.8937 -30.9465 -30.9464 -30.9380 -21.1192  -6.3415  -5.4882  -5.4401
    -3.1219  -3.0646  -2.9198   6.9798   7.0162   7.9430   7.9431   8.5815
     9.4930   9.5353   9.8191  10.2767  11.8810  12.0463  12.2645  14.1464
    15.8387  17.8782  18.0164  18.7303  19.9819  20.2105  20.5181  25.3687
    26.6669  27.4942  28.1515  29.2852  29.8274  30.8454  31.3874  32.6856
    33.0812  33.5754  33.7554  34.1563  36.3290  37.1391  38.3362  39.3365
    39.8869  41.3341

          k = 0.2000 0.2000 0.0000 (  3163 PWs)   bands (ev):

   -60.8937 -30.9465 -30.9464 -30.9380 -21.1192  -6.3415  -5.4882  -5.4401
    -3.1219  -3.0646  -2.9198   6.9798   7.0162   7.9430   7.9431   8.5815
     9.4930   9.5353   9.8191  10.2767  11.8810  12.0463  12.2645  14.1464
    15.8387  17.8782  18.0164  18.7303  19.9819  20.2105  20.5180  25.3687
    26.6669  27.4942  28.1515  29.2852  29.8274  30.8454  31.3874  32.6856
    33.0812  33.5754  33.7554  34.1563  36.3290  37.1391  38.3362  39.3365
    39.8869  41.3341

          k = 0.2000 0.2000 0.2000 (  3143 PWs)   bands (ev):

   -60.8935 -30.9462 -30.9460 -30.9460 -21.1117  -6.2110  -5.4396  -5.4396
    -3.1172  -3.1172  -2.8363   6.9027   6.9815   6.9815   7.9048   7.9048
     8.2536  10.0704  10.0704  10.4097  12.1748  12.4034  12.4034  15.8302
    15.8302  18.3554  18.3554  18.8076  20.3363  20.3363  20.8515  25.2648
    26.8365  26.8365  28.2002  28.2971  29.4259  29.4259  32.2609  32.2609
    32.5503  33.5221  33.5221  34.3429  34.8597  38.4840  38.4840  41.1601
    41.1601  41.4488

          k = 0.2000 0.2000 0.4000 (  3174 PWs)   bands (ev):

   -60.8934 -30.9590 -30.9454 -30.9453 -21.0995  -6.1316  -5.3553  -5.2643
    -3.2087  -2.9803  -2.8266   5.4531   6.7435   7.0009   7.2791   7.2919
     8.1422   9.9929  10.0831  10.3837  12.4157  13.2366  13.3155  15.7987
    17.5121  19.1325  19.1582  19.6633  20.1535  20.4874  22.0185  24.1164
    25.6926  26.2811  27.1185  27.5789  29.5381  30.0211  30.2001  31.8220
    31.8489  34.1909  34.4816  35.3146  36.1733  36.5248  37.3277  38.9673
    40.0434  41.2159

          k = 0.2000 0.2000 0.6000 (  3174 PWs)   bands (ev):

   -60.8934 -30.9590 -30.9454 -30.9453 -21.0995  -6.1316  -5.3553  -5.2643
    -3.2087  -2.9803  -2.8266   5.4531   6.7435   7.0009   7.2791   7.2919
     8.1422   9.9929  10.0831  10.3837  12.4157  13.2366  13.3155  15.7987
    17.5121  19.1325  19.1582  19.6633  20.1535  20.4874  22.0185  24.1164
    25.6926  26.2811  27.1185  27.5789  29.5381  30.0211  30.2001  31.8220
    31.8489  34.1909  34.4816  35.3146  36.1733  36.5248  37.3277  38.9673
    40.0434  41.2159

          k = 0.2000 0.2000 0.8000 (  3143 PWs)   bands (ev):

   -60.8935 -30.9462 -30.9460 -30.9460 -21.1117  -6.2110  -5.4396  -5.4396
    -3.1172  -3.1172  -2.8363   6.9027   6.9815   6.9815   7.9048   7.9048
     8.2536  10.0704  10.0704  10.4097  12.1748  12.4034  12.4034  15.8302
    15.8302  18.3554  18.3554  18.8076  20.3363  20.3363  20.8515  25.2648
    26.8365  26.8365  28.2002  28.2971  29.4259  29.4259  32.2609  32.2609
    32.5503  33.5221  33.5221  34.3429  34.8597  38.4840  38.4840  41.1601
    41.1601  41.4488

          k = 0.2000 0.4000 0.0000 (  3165 PWs)   bands (ev):

   -60.8935 -30.9595 -30.9457 -30.9373 -21.1062  -6.3436  -5.4365  -5.2334
    -3.0917  -3.0155  -2.7771   5.4577   6.8731   7.1764   7.8000   8.0118
     9.2279   9.3535   9.6812  10.2315  11.9361  13.2011  13.2179  14.3318
    17.2279  18.7949  19.1862  19.8804  19.9491  20.7560  21.3582  24.0545
    25.8608  26.8203  27.2970  28.3213  28.9508  29.5595  31.5486  32.5002
    32.9710  33.8006  34.2640  35.3949  35.4618  36.3336  37.0601  38.2749
    38.8874  41.6984

          k = 0.2000 0.4000 0.2000 (  3174 PWs)   bands (ev):

   -60.8934 -30.9590 -30.9454 -30.9453 -21.0995  -6.1316  -5.3553  -5.2643
    -3.2087  -2.9803  -2.8266   5.4531   6.7435   7.0009   7.2791   7.2919
     8.1422   9.9929  10.0831  10.3837  12.4157  13.2366  13.3155  15.7987
    17.5121  19.1325  19.1582  19.6633  20.1535  20.4874  22.0185  24.1164
    25.6926  26.2811  27.1185  27.5789  29.5381  30.0211  30.2001  31.8220
    31.8489  34.1909  34.4816  35.3146  36.1733  36.5248  37.3277  38.9673
    40.0434  41.2159

          k = 0.2000 0.4000 0.4000 (  3169 PWs)   bands (ev):

   -60.8932 -30.9582 -30.9582 -30.9446 -21.0886  -5.7530  -5.3137  -5.2426
    -3.2208  -3.0457  -2.9264   5.3379   5.6101   6.3055   7.0783   7.2124
     7.5407  10.1835  10.2809  11.0098  13.3349  13.3904  13.6733  16.5317
    18.7348  19.1244  19.5254  19.7432  20.0522  21.0535  22.4546  24.1694
    24.7142  26.2126  26.5918  27.1073  27.4833  28.7520  31.3426  31.7495
    32.3134  34.5533  35.1632  35.3381  36.9026  37.0905  37.9418  38.0224
    38.8665  40.7340

          k = 0.2000 0.4000 0.6000 (  3169 PWs)   bands (ev):

   -60.8932 -30.9582 -30.9582 -30.9446 -21.0886  -5.7530  -5.3137  -5.2426
    -3.2208  -3.0457  -2.9264   5.3379   5.6101   6.3055   7.0783   7.2124
     7.5407  10.1835  10.2809  11.0098  13.3349  13.3904  13.6733  16.5317
    18.7348  19.1244  19.5254  19.7432  20.0522  21.0535  22.4546  24.1694
    24.7142  26.2126  26.5918  27.1073  27.4833  28.7520  31.3426  31.7495
    32.3134  34.5533  35.1632  35.3381  36.9026  37.0905  37.9418  38.0224
    38.8665  40.7340

          k = 0.2000 0.4000 0.8000 (  3174 PWs)   bands (ev):

   -60.8934 -30.9590 -30.9454 -30.9453 -21.0995  -6.1316  -5.3553  -5.2643
    -3.2087  -2.9803  -2.8266   5.4531   6.7435   7.0009   7.2791   7.2919
     8.1422   9.9929  10.0831  10.3837  12.4157  13.2366  13.3155  15.7987
    17.5121  19.1325  19.1582  19.6633  20.1535  20.4874  22.0185  24.1164
    25.6926  26.2811  27.1185  27.5789  29.5381  30.0211  30.2001  31.8220
    31.8489  34.1909  34.4816  35.3146  36.1733  36.5248  37.3277  38.9673
    40.0434  41.2159

          k = 0.2000 0.6000 0.0000 (  3165 PWs)   bands (ev):

   -60.8935 -30.9595 -30.9457 -30.9373 -21.1062  -6.3436  -5.4365  -5.2334
    -3.0917  -3.0155  -2.7771   5.4577   6.8731   7.1764   7.8000   8.0118
     9.2279   9.3535   9.6812  10.2315  11.9361  13.2011  13.2179  14.3318
    17.2279  18.7949  19.1862  19.8804  19.9491  20.7560  21.3582  24.0545
    25.8608  26.8203  27.2970  28.3213  28.9508  29.5595  31.5486  32.5002
    32.9710  33.8006  34.2640  35.3949  35.4618  36.3336  37.0601  38.2749
    38.8874  41.6984

          k = 0.2000 0.6000 0.2000 (  3174 PWs)   bands (ev):

[...]
    40.3425  40.3425

          k = 0.6000 0.6000 0.6000 (  3169 PWs)   bands (ev):

   -60.8930 -30.9575 -30.9574 -30.9574 -21.0779  -5.3164  -5.1043  -5.1043
    -3.3507  -3.3507  -3.1852   5.3455   5.3455   5.9116   6.6077   6.7809
     6.7809  10.9429  10.9429  11.1002  13.8250  13.8648  13.8649  18.4802
    18.4802  18.6424  18.9637  18.9637  20.8889  20.8889  21.7665  24.9726
    25.6540  25.6541  26.7326  28.0589  28.5244  28.5244  30.3686  30.3686
    30.8581  34.2351  35.0377  35.0377  36.8925  36.8925  38.5064  38.9249
    40.3425  40.3425

          k = 0.6000 0.6000 0.8000 (  3169 PWs)   bands (ev):

   -60.8932 -30.9582 -30.9582 -30.9446 -21.0886  -5.7530  -5.3137  -5.2426
    -3.2208  -3.0457  -2.9264   5.3379   5.6101   6.3055   7.0783   7.2124
     7.5407  10.1835  10.2809  11.0098  13.3349  13.3904  13.6733  16.5317
    18.7348  19.1244  19.5254  19.7432  20.0522  21.0535  22.4546  24.1694
    24.7142  26.2126  26.5918  27.1073  27.4833  28.7520  31.3426  31.7495
    32.3134  34.5533  35.1632  35.3381  36.9026  37.0905  37.9418  38.0224
    38.8665  40.7340

          k = 0.6000 0.8000 0.0000 (  3165 PWs)   bands (ev):

   -60.8935 -30.9595 -30.9457 -30.9373 -21.1062  -6.3436  -5.4365  -5.2334
    -3.0917  -3.0155  -2.7771   5.4577   6.8731   7.1764   7.8000   8.0118
     9.2279   9.3535   9.6812  10.2315  11.9361  13.2011  13.2179  14.3318
    17.2279  18.7949  19.1862  19.8804  19.9491  20.7560  21.3582  24.0545
    25.8608  26.8203  27.2970  28.3213  28.9508  29.5595  31.5486  32.5002
    32.9710  33.8006  34.2640  35.3949  35.4618  36.3336  37.0601  38.2749
    38.8874  41.6984

          k = 0.6000 0.8000 0.2000 (  3174 PWs)   bands (ev):

   -60.8934 -30.9590 -30.9454 -30.9453 -21.0995  -6.1316  -5.3553  -5.2643
    -3.2087  -2.9803  -2.8266   5.4531   6.7435   7.0009   7.2791   7.2919
     8.1422   9.9929  10.0831  10.3837  12.4157  13.2366  13.3155  15.7987
    17.5121  19.1325  19.1582  19.6633  20.1535  20.4874  22.0185  24.1164
    25.6926  26.2811  27.1185  27.5789  29.5381  30.0211  30.2001  31.8220
    31.8489  34.1909  34.4816  35.3146  36.1733  36.5248  37.3277  38.9673
    40.0434  41.2159

          k = 0.6000 0.8000 0.4000 (  3169 PWs)   bands (ev):

   -60.8932 -30.9582 -30.9582 -30.9446 -21.0886  -5.7530  -5.3137  -5.2426
    -3.2208  -3.0457  -2.9264   5.3379   5.6101   6.3055   7.0783   7.2124
     7.5407  10.1835  10.2809  11.0098  13.3349  13.3904  13.6733  16.5317
    18.7348  19.1244  19.5254  19.7432  20.0522  21.0535  22.4546  24.1694
    24.7142  26.2126  26.5918  27.1073  27.4833  28.7520  31.3426  31.7495
    32.3134  34.5533  35.1632  35.3381  36.9026  37.0905  37.9418  38.0224
    38.8665  40.7340

          k = 0.6000 0.8000 0.6000 (  3169 PWs)   bands (ev):

   -60.8932 -30.9582 -30.9582 -30.9446 -21.0886  -5.7530  -5.3137  -5.2426
    -3.2208  -3.0457  -2.9264   5.3379   5.6101   6.3055   7.0783   7.2124
     7.5407  10.1835  10.2809  11.0098  13.3349  13.3904  13.6733  16.5317
    18.7348  19.1244  19.5254  19.7432  20.0522  21.0535  22.4546  24.1694
    24.7142  26.2126  26.5918  27.1073  27.4833  28.7520  31.3426  31.7495
    32.3134  34.5533  35.1632  35.3381  36.9026  37.0905  37.9418  38.0224
    38.8665  40.7340

          k = 0.6000 0.8000 0.8000 (  3174 PWs)   bands (ev):

   -60.8934 -30.9590 -30.9454 -30.9453 -21.0995  -6.1316  -5.3553  -5.2643
    -3.2087  -2.9803  -2.8266   5.4531   6.7435   7.0009   7.2791   7.2919
     8.1422   9.9929  10.0831  10.3837  12.4157  13.2366  13.3155  15.7987
    17.5121  19.1325  19.1582  19.6633  20.1535  20.4874  22.0185  24.1164
    25.6926  26.2811  27.1185  27.5789  29.5381  30.0211  30.2001  31.8220
    31.8489  34.1909  34.4816  35.3146  36.1733  36.5248  37.3277  38.9673
    40.0434  41.2159

          k = 0.8000 0.0000 0.0000 (  3150 PWs)   bands (ev):

   -60.8938 -30.9469 -30.9384 -30.9384 -21.1272  -6.4232  -5.5179  -5.4468
    -3.1404  -3.1404  -2.9729   7.0380   8.0315   8.0315   8.9590   8.9590
     9.5577   9.7250  10.3599  10.3599  10.4996  11.9852  11.9852  13.3500
    14.9467  17.3790  17.4090  18.2450  19.6878  20.1772  20.1772  25.2273
    27.5968  27.8303  27.8303  30.0393  31.0251  31.8373  32.4255  32.4255
    32.9777  33.4538  33.4538  35.0486  36.5850  36.5850  37.6401  39.1606
    40.7135  40.7135

          k = 0.8000 0.0000 0.2000 (  3163 PWs)   bands (ev):

   -60.8937 -30.9465 -30.9464 -30.9380 -21.1192  -6.3415  -5.4882  -5.4401
    -3.1219  -3.0646  -2.9198   6.9798   7.0162   7.9430   7.9431   8.5815
     9.4930   9.5353   9.8191  10.2767  11.8810  12.0463  12.2645  14.1464
    15.8387  17.8782  18.0164  18.7303  19.9819  20.2105  20.5181  25.3687
    26.6669  27.4942  28.1515  29.2852  29.8274  30.8454  31.3874  32.6856
    33.0812  33.5754  33.7554  34.1563  36.3290  37.1391  38.3362  39.3365
    39.8869  41.3341

          k = 0.8000 0.0000 0.4000 (  3165 PWs)   bands (ev):

   -60.8935 -30.9595 -30.9457 -30.9373 -21.1062  -6.3436  -5.4365  -5.2334
    -3.0917  -3.0155  -2.7771   5.4577   6.8731   7.1764   7.8000   8.0118
     9.2279   9.3535   9.6812  10.2315  11.9361  13.2011  13.2179  14.3318
    17.2279  18.7949  19.1862  19.8804  19.9491  20.7560  21.3582  24.0545
    25.8608  26.8203  27.2970  28.3213  28.9508  29.5595  31.5486  32.5002
    32.9710  33.8006  34.2640  35.3949  35.4618  36.3336  37.0601  38.2749
    38.8874  41.6984

          k = 0.8000 0.0000 0.6000 (  3165 PWs)   bands (ev):

   -60.8935 -30.9595 -30.9457 -30.9373 -21.1062  -6.3436  -5.4365  -5.2334
    -3.0917  -3.0155  -2.7771   5.4577   6.8731   7.1764   7.8000   8.0118
     9.2279   9.3535   9.6812  10.2315  11.9361  13.2011  13.2179  14.3318
    17.2279  18.7949  19.1862  19.8804  19.9491  20.7560  21.3582  24.0545
    25.8608  26.8203  27.2970  28.3213  28.9508  29.5595  31.5486  32.5002
    32.9710  33.8006  34.2640  35.3949  35.4618  36.3336  37.0601  38.2749
    38.8874  41.6984

          k = 0.8000 0.0000 0.8000 (  3163 PWs)   bands (ev):

   -60.8937 -30.9465 -30.9464 -30.9380 -21.1192  -6.3415  -5.4882  -5.4401
    -3.1219  -3.0646  -2.9198   6.9798   7.0162   7.9430   7.9431   8.5815
     9.4930   9.5353   9.8191  10.2767  11.8810  12.0463  12.2645  14.1464
    15.8387  17.8782  18.0164  18.7303  19.9819  20.2105  20.5181  25.3687
    26.6669  27.4942  28.1515  29.2852  29.8274  30.8454  31.3874  32.6856
    33.0812  33.5754  33.7554  34.1563  36.3290  37.1391  38.3362  39.3365
    39.8869  41.3341

          k = 0.8000 0.2000 0.0000 (  3163 PWs)   bands (ev):

   -60.8937 -30.9465 -30.9464 -30.9380 -21.1192  -6.3415  -5.4882  -5.4401
    -3.1219  -3.0646  -2.9198   6.9798   7.0162   7.9430   7.9431   8.5815
     9.4930   9.5353   9.8191  10.2767  11.8810  12.0463  12.2645  14.1464
    15.8387  17.8782  18.0164  18.7303  19.9819  20.2105  20.5180  25.3687
    26.6669  27.4942  28.1515  29.2852  29.8274  30.8454  31.3874  32.6856
    33.0812  33.5754  33.7554  34.1563  36.3290  37.1391  38.3362  39.3365
    39.8869  41.3341

          k = 0.8000 0.2000 0.2000 (  3143 PWs)   bands (ev):

   -60.8935 -30.9462 -30.9460 -30.9460 -21.1117  -6.2110  -5.4396  -5.4396
    -3.1172  -3.1172  -2.8363   6.9027   6.9815   6.9815   7.9048   7.9048
     8.2536  10.0704  10.0704  10.4097  12.1748  12.4034  12.4034  15.8302
    15.8302  18.3554  18.3554  18.8076  20.3363  20.3363  20.8515  25.2648
    26.8365  26.8365  28.2002  28.2971  29.4259  29.4259  32.2609  32.2609
    32.5503  33.5221  33.5221  34.3429  34.8597  38.4840  38.4840  41.1601
    41.1601  41.4488

          k = 0.8000 0.2000 0.4000 (  3174 PWs)   bands (ev):

   -60.8934 -30.9590 -30.9454 -30.9453 -21.0995  -6.1316  -5.3553  -5.2643
    -3.2087  -2.9803  -2.8266   5.4531   6.7435   7.0009   7.2791   7.2919
     8.1422   9.9929  10.0831  10.3837  12.4157  13.2366  13.3155  15.7987
    17.5121  19.1325  19.1582  19.6633  20.1535  20.4874  22.0185  24.1164
    25.6926  26.2811  27.1185  27.5789  29.5381  30.0211  30.2001  31.8220
    31.8489  34.1909  34.4816  35.3146  36.1733  36.5248  37.3277  38.9673
    40.0434  41.2159

          k = 0.8000 0.2000 0.6000 (  3174 PWs)   bands (ev):

   -60.8934 -30.9590 -30.9454 -30.9453 -21.0995  -6.1316  -5.3553  -5.2643
    -3.2087  -2.9803  -2.8266   5.4531   6.7435   7.0009   7.2791   7.2919
     8.1422   9.9929  10.0831  10.3837  12.4157  13.2366  13.3155  15.7987
    17.5121  19.1325  19.1582  19.6633  20.1535  20.4874  22.0185  24.1164
    25.6926  26.2811  27.1185  27.5789  29.5381  30.0211  30.2001  31.8220
    31.8489  34.1909  34.4816  35.3146  36.1733  36.5248  37.3277  38.9673
    40.0434  41.2159

          k = 0.8000 0.2000 0.8000 (  3143 PWs)   bands (ev):

   -60.8935 -30.9462 -30.9460 -30.9460 -21.1117  -6.2110  -5.4396  -5.4396
    -3.1172  -3.1172  -2.8363   6.9027   6.9815   6.9815   7.9048   7.9048
     8.2536  10.0704  10.0704  10.4097  12.1748  12.4034  12.4034  15.8302
    15.8302  18.3554  18.3554  18.8076  20.3363  20.3363  20.8515  25.2648
    26.8365  26.8365  28.2002  28.2971  29.4259  29.4259  32.2609  32.2609
    32.5503  33.5221  33.5221  34.3429  34.8597  38.4840  38.4840  41.1601
    41.1601  41.4488

          k = 0.8000 0.4000 0.0000 (  3165 PWs)   bands (ev):

   -60.8935 -30.9595 -30.9457 -30.9373 -21.1062  -6.3436  -5.4365  -5.2334
    -3.0917  -3.0155  -2.7771   5.4577   6.8731   7.1764   7.8000   8.0118
     9.2279   9.3535   9.6812  10.2315  11.9361  13.2011  13.2179  14.3318
    17.2279  18.7949  19.1862  19.8804  19.9491  20.7560  21.3582  24.0545
    25.8608  26.8203  27.2970  28.3213  28.9508  29.5595  31.5486  32.5002
    32.9710  33.8006  34.2640  35.3949  35.4618  36.3336  37.0601  38.2749
    38.8874  41.6984

          k = 0.8000 0.4000 0.2000 (  3174 PWs)   bands (ev):

   -60.8934 -30.9590 -30.9454 -30.9453 -21.0995  -6.1316  -5.3553  -5.2643
    -3.2087  -2.9803  -2.8266   5.4531   6.7435   7.0009   7.2791   7.2919
     8.1422   9.9929  10.0831  10.3837  12.4157  13.2366  13.3155  15.7987
    17.5121  19.1325  19.1582  19.6633  20.1535  20.4874  22.0185  24.1164
    25.6926  26.2811  27.1185  27.5789  29.5381  30.0211  30.2001  31.8220
    31.8489  34.1909  34.4816  35.3146  36.1733  36.5248  37.3277  38.9673
    40.0434  41.2159

          k = 0.8000 0.4000 0.4000 (  3169 PWs)   bands (ev):

   -60.8932 -30.9582 -30.9582 -30.9446 -21.0886  -5.7530  -5.3137  -5.2426
    -3.2208  -3.0457  -2.9264   5.3379   5.6101   6.3055   7.0783   7.2124
     7.5407  10.1835  10.2809  11.0098  13.3349  13.3904  13.6733  16.5317
    18.7348  19.1244  19.5254  19.7432  20.0522  21.0535  22.4546  24.1694
    24.7142  26.2126  26.5918  27.1073  27.4833  28.7520  31.3426  31.7495
    32.3134  34.5533  35.1632  35.3381  36.9026  37.0905  37.9418  38.0224
    38.8665  40.7340

          k = 0.8000 0.4000 0.6000 (  3169 PWs)   bands (ev):

   -60.8932 -30.9582 -30.9582 -30.9446 -21.0886  -5.7530  -5.3137  -5.2426
    -3.2208  -3.0457  -2.9264   5.3379   5.6101   6.3055   7.0783   7.2124
     7.5407  10.1835  10.2809  11.0098  13.3349  13.3904  13.6733  16.5317
    18.7348  19.1244  19.5254  19.7432  20.0522  21.0535  22.4546  24.1694
    24.7142  26.2126  26.5918  27.1073  27.4833  28.7520  31.3426  31.7495
    32.3134  34.5533  35.1632  35.3381  36.9026  37.0905  37.9418  38.0224
    38.8665  40.7340

          k = 0.8000 0.4000 0.8000 (  3174 PWs)   bands (ev):

   -60.8934 -30.9590 -30.9454 -30.9453 -21.0995  -6.1316  -5.3553  -5.2643
    -3.2087  -2.9803  -2.8266   5.4531   6.7435   7.0009   7.2791   7.2919
     8.1422   9.9929  10.0831  10.3837  12.4157  13.2366  13.3155  15.7987
    17.5121  19.1325  19.1582  19.6633  20.1535  20.4874  22.0185  24.1164
    25.6926  26.2811  27.1185  27.5789  29.5381  30.0211  30.2001  31.8220
    31.8489  34.1909  34.4816  35.3146  36.1733  36.5248  37.3277  38.9673
    40.0434  41.2159

          k = 0.8000 0.6000 0.0000 (  3165 PWs)   bands (ev):

   -60.8935 -30.9595 -30.9457 -30.9373 -21.1062  -6.3436  -5.4365  -5.2334
    -3.0917  -3.0155  -2.7771   5.4577   6.8731   7.1764   7.8000   8.0118
     9.2279   9.3535   9.6812  10.2315  11.9361  13.2011  13.2179  14.3318
    17.2279  18.7949  19.1862  19.8804  19.9491  20.7560  21.3582  24.0545
    25.8608  26.8203  27.2970  28.3213  28.9508  29.5595  31.5486  32.5002
    32.9710  33.8006  34.2640  35.3949  35.4618  36.3336  37.0601  38.2749
    38.8874  41.6984

          k = 0.8000 0.6000 0.2000 (  3174 PWs)   bands (ev):

   -60.8934 -30.9590 -30.9454 -30.9453 -21.0995  -6.1316  -5.3553  -5.2643
    -3.2087  -2.9803  -2.8266   5.4531   6.7435   7.0009   7.2791   7.2919
     8.1422   9.9929  10.0831  10.3837  12.4157  13.2366  13.3155  15.7987
    17.5121  19.1325  19.1582  19.6633  20.1535  20.4874  22.0185  24.1164
    25.6926  26.2811  27.1185  27.5789  29.5381  30.0211  30.2001  31.8220
    31.8489  34.1909  34.4816  35.3146  36.1733  36.5248  37.3277  38.9673
    40.0434  41.2159

          k = 0.8000 0.6000 0.4000 (  3169 PWs)   bands (ev):

   -60.8932 -30.9582 -30.9582 -30.9446 -21.0886  -5.7530  -5.3137  -5.2426
    -3.2208  -3.0457  -2.9264   5.3379   5.6101   6.3055   7.0783   7.2124
     7.5407  10.1835  10.2809  11.0098  13.3349  13.3904  13.6733  16.5317
    18.7348  19.1244  19.5254  19.7432  20.0522  21.0535  22.4546  24.1694
    24.7142  26.2126  26.5918  27.1073  27.4833  28.7520  31.3426  31.7495
    32.3134  34.5533  35.1632  35.3381  36.9026  37.0905  37.9418  38.0224
    38.8665  40.7340

          k = 0.8000 0.6000 0.6000 (  3169 PWs)   bands (ev):

   -60.8932 -30.9582 -30.9582 -30.9446 -21.0886  -5.7530  -5.3137  -5.2426
    -3.2208  -3.0457  -2.9264   5.3379   5.6101   6.3055   7.0783   7.2124
     7.5407  10.1835  10.2809  11.0098  13.3349  13.3904  13.6733  16.5317
    18.7348  19.1244  19.5254  19.7432  20.0522  21.0535  22.4546  24.1694
    24.7142  26.2126  26.5918  27.1073  27.4833  28.7520  31.3426  31.7495
    32.3134  34.5533  35.1632  35.3381  36.9026  37.0905  37.9418  38.0224
    38.8665  40.7340

          k = 0.8000 0.6000 0.8000 (  3174 PWs)   bands (ev):

   -60.8934 -30.9590 -30.9454 -30.9453 -21.0995  -6.1316  -5.3553  -5.2643
    -3.2087  -2.9803  -2.8266   5.4531   6.7435   7.0009   7.2791   7.2919
     8.1422   9.9929  10.0831  10.3837  12.4157  13.2366  13.3155  15.7987
    17.5121  19.1325  19.1582  19.6633  20.1535  20.4874  22.0185  24.1164
    25.6926  26.2811  27.1185  27.5789  29.5381  30.0211  30.2001  31.8220
    31.8489  34.1909  34.4816  35.3146  36.1733  36.5248  37.3277  38.9673
    40.0434  41.2159

          k = 0.8000 0.8000 0.0000 (  3163 PWs)   bands (ev):

   -60.8937 -30.9465 -30.9464 -30.9380 -21.1192  -6.3415  -5.4882  -5.4401
    -3.1219  -3.0646  -2.9198   6.9798   7.0162   7.9430   7.9431   8.5815
     9.4930   9.5353   9.8191  10.2767  11.8810  12.0463  12.2645  14.1464
    15.8387  17.8782  18.0164  18.7303  19.9819  20.2105  20.5180  25.3687
    26.6669  27.4942  28.1515  29.2852  29.8274  30.8454  31.3874  32.6856
    33.0812  33.5754  33.7554  34.1563  36.3290  37.1391  38.3362  39.3365
    39.8869  41.3341

          k = 0.8000 0.8000 0.2000 (  3143 PWs)   bands (ev):

   -60.8935 -30.9462 -30.9460 -30.9460 -21.1117  -6.2110  -5.4396  -5.4396
    -3.1172  -3.1172  -2.8363   6.9027   6.9815   6.9815   7.9048   7.9048
     8.2536  10.0704  10.0704  10.4097  12.1748  12.4034  12.4034  15.8302
    15.8302  18.3554  18.3554  18.8076  20.3363  20.3363  20.8515  25.2648
    26.8365  26.8365  28.2002  28.2971  29.4259  29.4259  32.2609  32.2609
    32.5503  33.5221  33.5221  34.3429  34.8597  38.4840  38.4840  41.1601
    41.1601  41.4488

          k = 0.8000 0.8000 0.4000 (  3174 PWs)   bands (ev):

   -60.8934 -30.9590 -30.9454 -30.9453 -21.0995  -6.1316  -5.3553  -5.2643
    -3.2087  -2.9803  -2.8266   5.4531   6.7435   7.0009   7.2791   7.2919
     8.1422   9.9929  10.0831  10.3837  12.4157  13.2366  13.3155  15.7987
    17.5121  19.1325  19.1582  19.6633  20.1535  20.4874  22.0185  24.1164
    25.6926  26.2811  27.1185  27.5789  29.5381  30.0211  30.2001  31.8220
    31.8489  34.1909  34.4816  35.3146  36.1733  36.5248  37.3277  38.9673
    40.0434  41.2159

          k = 0.8000 0.8000 0.6000 (  3174 PWs)   bands (ev):

   -60.8934 -30.9590 -30.9454 -30.9453 -21.0995  -6.1316  -5.3553  -5.2643
    -3.2087  -2.9803  -2.8266   5.4531   6.7435   7.0009   7.2791   7.2919
     8.1422   9.9929  10.0831  10.3837  12.4157  13.2366  13.3155  15.7987
    17.5121  19.1325  19.1582  19.6633  20.1535  20.4874  22.0185  24.1164
    25.6926  26.2811  27.1185  27.5789  29.5381  30.0211  30.2001  31.8220
    31.8489  34.1909  34.4816  35.3146  36.1733  36.5248  37.3277  38.9673
    40.0434  41.2159

          k = 0.8000 0.8000 0.8000 (  3143 PWs)   bands (ev):

   -60.8935 -30.9462 -30.9460 -30.9460 -21.1117  -6.2110  -5.4396  -5.4396
    -3.1172  -3.1172  -2.8363   6.9027   6.9815   6.9815   7.9048   7.9048
     8.2536  10.0704  10.0704  10.4097  12.1748  12.4034  12.4034  15.8302
    15.8302  18.3554  18.3554  18.8076  20.3363  20.3363  20.8515  25.2648
    26.8365  26.8365  28.2002  28.2971  29.4259  29.4259  32.2609  32.2609
    32.5503  33.5221  33.5221  34.3429  34.8597  38.4840  38.4840  41.1601
    41.1601  41.4488

     Writing all to output data dir ./QE_tmp/sro.save/

     init_run     :      1.27s CPU      1.33s WALL (       1 calls)
     electrons    :    252.61s CPU    253.96s WALL (       1 calls)

     Called by init_run:
     wfcinit      :      0.00s CPU      0.00s WALL (       1 calls)
     wfcinit:atom :      0.03s CPU      0.03s WALL (     125 calls)
     wfcinit:wfcr :      7.22s CPU      7.27s WALL (     125 calls)
     potinit      :      0.25s CPU      0.26s WALL (       1 calls)
     hinit0       :      0.65s CPU      0.66s WALL (       1 calls)

     Called by electrons:
     c_bands      :    252.60s CPU    253.95s WALL (       1 calls)
     v_of_rho     :      0.04s CPU      0.04s WALL (       1 calls)
     v_h          :      0.00s CPU      0.00s WALL (       1 calls)
     v_xc         :      0.04s CPU      0.04s WALL (       1 calls)
     newd         :      0.14s CPU      0.18s WALL (       1 calls)
     PAW_pot      :      0.05s CPU      0.05s WALL (       1 calls)

     Called by c_bands:
     init_us_2    :      0.03s CPU      0.03s WALL (     125 calls)
     init_us_2:cp :      0.03s CPU      0.03s WALL (     125 calls)
     cegterg      :    244.80s CPU    246.05s WALL (     381 calls)

     Called by sum_band:

     Called by *egterg:
     cdiaghg      :     30.35s CPU     30.41s WALL (    6457 calls)
     cegterg:over :     25.15s CPU     25.21s WALL (    6332 calls)
     cegterg:upda :      3.14s CPU      3.15s WALL (    6332 calls)
     cegterg:last :      8.18s CPU      8.19s WALL (    3069 calls)
     h_psi        :    156.82s CPU    157.96s WALL (    6838 calls)
     s_psi        :      2.19s CPU      2.21s WALL (    6838 calls)
     g_psi        :      0.69s CPU      0.69s WALL (    6332 calls)

     Called by h_psi:
     h_psi:calbec :      7.20s CPU      7.22s WALL (    6838 calls)
     vloc_psi     :    147.10s CPU    148.20s WALL (    6838 calls)
     add_vuspsi   :      2.33s CPU      2.34s WALL (    6838 calls)

     General routines
     calbec       :      7.18s CPU      7.21s WALL (    6838 calls)
     fft          :      0.30s CPU      0.30s WALL (      13 calls)
     ffts         :      0.16s CPU      0.16s WALL (       1 calls)
     fftw         :    138.90s CPU    139.88s WALL (  319356 calls)
     interpolate  :      0.16s CPU      0.16s WALL (       1 calls)
     davcio       :      0.04s CPU      0.05s WALL (     250 calls)

     Parallel routines

     PAW routines
     PAW_pot      :      0.05s CPU      0.05s WALL (       1 calls)

     PWSCF        :   4m14.77s CPU   4m16.56s WALL


   This run was terminated on:  22:18:19  16Jun2025            

=------------------------------------------------------------------------------=
   JOB DONE.
=------------------------------------------------------------------------------=
