
     Program PWSCF v.7.2 starts on 16Jun2025 at 21:58:25 

     This program is part of the open-source Quantum ESPRESSO suite
     for quantum simulation of materials; please cite
         "P. Giannozzi et al., J. Phys.:Condens. Matter 21 395502 (2009);
         "P. Giannozzi et al., J. Phys.:Condens. Matter 29 465901 (2017);
         "P. Giannozzi et al., J. Chem. Phys. 152 154105 (2020);
          URL http://www.quantum-espresso.org", 
     in publications or presentations arising from this work. More details at
     http://www.quantum-espresso.org/quote

     Parallel version (MPI & OpenMP), running on       8 processor cores
     Number of MPI processes:                 8
     Threads/MPI process:                     1

     MPI processes distributed on     1 nodes
     6903 MiB available memory on the printing compute node when the environment starts

     Reading input from sro.bnd.in
Warning: card &IONS ignored
Warning: card / ignored
Warning: card &CELL ignored
Warning: card / ignored
Warning: card 0.5 0.0 0.0    1  ! FINAL POINT, USUALLY 1 ignored

     Current dimensions of program PWSCF are:
     Max number of different atomic species (ntypx) = 10
     Max number of k-points (npk) =  40000
     Max angular momentum in pseudopotentials (lmaxx) =  4

     Atomic positions and unit cell read from directory:
     ./QE_tmp/sro.save/

     file O.pbesol-n-kjpaw_psl.0.1.UPF: wavefunction(s)  2P renormalized
     Message from routine setup:
     using ibrav=0 with symmetry is DISCOURAGED, use correct ibrav instead

     R & G space division:  proc/nbgrp/npool/nimage =       8
     Subspace diagonalization in iterative solution of the eigenvalue problem:
     a serial algorithm will be used


     Parallelization info
     --------------------
     sticks:   dense  smooth     PW     G-vecs:    dense   smooth      PW
     Min         390     130     38                16434     3166     516
     Max         391     131     39                16439     3169     518
     Sum        3125    1041    305               131491    25341    4139

     Using Slab Decomposition



     bravais-lattice index     =            0
     lattice parameter (alat)  =       7.3852  a.u.
     unit-cell volume          =     402.8039 (a.u.)^3
     number of atoms/cell      =            5
     number of atomic types    =            3
     number of electrons       =        44.00
     number of Kohn-Sham states=           50
     kinetic-energy cutoff     =      60.0000  Ry
     charge density cutoff     =     720.0000  Ry
     Exchange-correlation= SLA  PW   PSX  PSC
                           (   1   4  10   8   0   0   0)

     celldm(1)=   7.385239  celldm(2)=   0.000000  celldm(3)=   0.000000
     celldm(4)=   0.000000  celldm(5)=   0.000000  celldm(6)=   0.000000

     crystal axes: (cart. coord. in units of alat)
               a(1) = (   1.000000   0.000000   0.000000 )  
               a(2) = (   0.000000   1.000000   0.000000 )  
               a(3) = (   0.000000   0.000000   1.000000 )  

     reciprocal axes: (cart. coord. in units 2 pi/alat)
               b(1) = (  1.000000  0.000000  0.000000 )  
               b(2) = (  0.000000  1.000000  0.000000 )  
               b(3) = (  0.000000  0.000000  1.000000 )  


     PseudoPot. # 1 for Sr read from file:
     ./Pseudos/sr_pbesol_v1.uspp.F.UPF
     MD5 check sum: 635bff1625df5273dba4129a01ed8c82
     Pseudo is Ultrasoft + core correction, Zval = 10.0
     Generated by new atomic code, or converted to UPF format
     Using radial grid of  883 points,  6 beta functions with: 
                l(1) =   0
                l(2) =   0
                l(3) =   1
                l(4) =   1
                l(5) =   2
                l(6) =   2
     Q(r) pseudized with  6 coefficients,  rinner =    1.400   1.400   1.400
                                                       1.400   1.400

     PseudoPot. # 2 for Ru read from file:
     ./Pseudos/Ru_ONCV_PBEsol-1.0.upf
     MD5 check sum: 8f986bf37b5af91b2f53a4f9afee5fd8
     Pseudo is Norm-conserving, Zval = 16.0
     Generated using ONCVPSP code by D. R. Hamann
     Using radial grid of 1440 points,  6 beta functions with: 
                l(1) =   0
                l(2) =   0
                l(3) =   1
                l(4) =   1
                l(5) =   2
                l(6) =   2

     PseudoPot. # 3 for O  read from file:
     ./Pseudos/O.pbesol-n-kjpaw_psl.0.1.UPF
     MD5 check sum: 81d73d1479e654e5638b0319f0d6c2c7
     Pseudo is Projector augmented-wave + core cor, Zval =  6.0
     Generated using "atomic" code by A. Dal Corso  v.6.0 svn rev. 13079
     Shape of augmentation charge: BESSEL
     Using radial grid of 1095 points,  4 beta functions with: 
                l(1) =   0
                l(2) =   0
                l(3) =   1
                l(4) =   1
     Q(r) pseudized with 0 coefficients 


     atomic species   valence    mass     pseudopotential
        Sr            10.00    87.62000     Sr( 1.00)
        Ru            16.00    50.94150     Ru( 1.00)
        O              6.00    15.99940     O ( 1.00)

     48 Sym. Ops., with inversion, found



   Cartesian axes

     site n.     atom                  positions (alat units)
         1           Sr  tau(   1) = (   0.0000000   0.0000000   0.0000000  )
         2           Ru  tau(   2) = (   0.5000000   0.5000000   0.5000000  )
         3           O   tau(   3) = (   0.5000000   0.5000000   0.0000000  )
         4           O   tau(   4) = (   0.5000000   0.0000000   0.5000000  )
         5           O   tau(   5) = (   0.0000000   0.5000000   0.5000000  )

     number of k points=    61  Methfessel-Paxton smearing, width (Ry)=  0.0200
                       cart. coord. in units 2pi/alat
        k(    1) = (   0.0000000   0.0000000   0.0000000), wk =   0.0327869
        k(    2) = (   0.0333333   0.0000000   0.0000000), wk =   0.0327869
        k(    3) = (   0.0666667   0.0000000   0.0000000), wk =   0.0327869
        k(    4) = (   0.1000000   0.0000000   0.0000000), wk =   0.0327869
        k(    5) = (   0.1333333   0.0000000   0.0000000), wk =   0.0327869
        k(    6) = (   0.1666667   0.0000000   0.0000000), wk =   0.0327869
        k(    7) = (   0.2000000   0.0000000   0.0000000), wk =   0.0327869
        k(    8) = (   0.2333333   0.0000000   0.0000000), wk =   0.0327869
        k(    9) = (   0.2666667   0.0000000   0.0000000), wk =   0.0327869
        k(   10) = (   0.3000000   0.0000000   0.0000000), wk =   0.0327869
        k(   11) = (   0.3333333   0.0000000   0.0000000), wk =   0.0327869
        k(   12) = (   0.3666667   0.0000000   0.0000000), wk =   0.0327869
        k(   13) = (   0.4000000   0.0000000   0.0000000), wk =   0.0327869
        k(   14) = (   0.4333333   0.0000000   0.0000000), wk =   0.0327869
        k(   15) = (   0.4666667   0.0000000   0.0000000), wk =   0.0327869
        k(   16) = (   0.5000000   0.0000000   0.0000000), wk =   0.0327869
        k(   17) = (   0.5000000   0.0333333   0.0333333), wk =   0.0327869
        k(   18) = (   0.5000000   0.0666667   0.0666667), wk =   0.0327869
        k(   19) = (   0.5000000   0.1000000   0.1000000), wk =   0.0327869
        k(   20) = (   0.5000000   0.1333333   0.1333333), wk =   0.0327869
        k(   21) = (   0.5000000   0.1666667   0.1666667), wk =   0.0327869
        k(   22) = (   0.5000000   0.2000000   0.2000000), wk =   0.0327869
        k(   23) = (   0.5000000   0.2333333   0.2333333), wk =   0.0327869
        k(   24) = (   0.5000000   0.2666667   0.2666667), wk =   0.0327869
        k(   25) = (   0.5000000   0.3000000   0.3000000), wk =   0.0327869
        k(   26) = (   0.5000000   0.3333333   0.3333333), wk =   0.0327869
        k(   27) = (   0.5000000   0.3666667   0.3666667), wk =   0.0327869
        k(   28) = (   0.5000000   0.4000000   0.4000000), wk =   0.0327869
        k(   29) = (   0.5000000   0.4333333   0.4333333), wk =   0.0327869
        k(   30) = (   0.5000000   0.4666667   0.4666667), wk =   0.0327869
        k(   31) = (   0.5000000   0.5000000   0.5000000), wk =   0.0327869
        k(   32) = (   0.4666667   0.4666667   0.4666667), wk =   0.0327869
        k(   33) = (   0.4333333   0.4333333   0.4333333), wk =   0.0327869
        k(   34) = (   0.4000000   0.4000000   0.4000000), wk =   0.0327869
        k(   35) = (   0.3666667   0.3666667   0.3666667), wk =   0.0327869
        k(   36) = (   0.3333333   0.3333333   0.3333333), wk =   0.0327869
        k(   37) = (   0.3000000   0.3000000   0.3000000), wk =   0.0327869
        k(   38) = (   0.2666667   0.2666667   0.2666667), wk =   0.0327869
        k(   39) = (   0.2333333   0.2333333   0.2333333), wk =   0.0327869
        k(   40) = (   0.2000000   0.2000000   0.2000000), wk =   0.0327869
        k(   41) = (   0.1666667   0.1666667   0.1666667), wk =   0.0327869
        k(   42) = (   0.1333333   0.1333333   0.1333333), wk =   0.0327869
        k(   43) = (   0.1000000   0.1000000   0.1000000), wk =   0.0327869
        k(   44) = (   0.0666667   0.0666667   0.0666667), wk =   0.0327869
        k(   45) = (   0.0333333   0.0333333   0.0333333), wk =   0.0327869
        k(   46) = (   0.0000000   0.0000000   0.0000000), wk =   0.0327869
        k(   47) = (   0.0333333   0.0333333   0.0333333), wk =   0.0327869
        k(   48) = (   0.0666667   0.0666667   0.0666667), wk =   0.0327869
        k(   49) = (   0.1000000   0.1000000   0.1000000), wk =   0.0327869
        k(   50) = (   0.1333333   0.1333333   0.1333333), wk =   0.0327869
        k(   51) = (   0.1666667   0.1666667   0.1666667), wk =   0.0327869
        k(   52) = (   0.2000000   0.2000000   0.2000000), wk =   0.0327869
        k(   53) = (   0.2333333   0.2333333   0.2333333), wk =   0.0327869
        k(   54) = (   0.2666667   0.2666667   0.2666667), wk =   0.0327869
        k(   55) = (   0.3000000   0.3000000   0.3000000), wk =   0.0327869
        k(   56) = (   0.3333333   0.3333333   0.3333333), wk =   0.0327869
        k(   57) = (   0.3666667   0.3666667   0.3666667), wk =   0.0327869
        k(   58) = (   0.4000000   0.4000000   0.4000000), wk =   0.0327869
        k(   59) = (   0.4333333   0.4333333   0.4333333), wk =   0.0327869
        k(   60) = (   0.4666667   0.4666667   0.4666667), wk =   0.0327869
        k(   61) = (   0.5000000   0.5000000   0.5000000), wk =   0.0327869

     Dense  grid:   131491 G-vectors     FFT dimensions: (  64,  64,  64)

     Smooth grid:    25341 G-vectors     FFT dimensions: (  40,  40,  40)

     Estimated max dynamical RAM per process >      60.00 MB

     Estimated total dynamical RAM >     480.02 MB

     The potential is recalculated from file :
     ./QE_tmp/sro.save/charge-density


     negative rho (up, down):  6.621E-02 0.000E+00
     Starting wfcs are   35 randomized atomic wfcs +   15 random wfcs
     Checking if some PAW data can be deallocated... 

     Band Structure Calculation
     ParO style diagonalization

     ethr =  2.27E-13,  avg # of iterations = 22.7

     total cpu time spent up to now is      109.6 secs

     End of band structure calculation

          k = 0.0000 0.0000 0.0000 (  3119 PWs)   bands (ev):

   -60.8939 -30.9388 -30.9388 -30.9388 -21.1360  -6.4154  -5.5307  -5.5307
    -3.1570  -3.1570  -3.1570   8.1002   8.1002   8.1002  10.0262  10.0262
    10.0262  10.4667  10.4667  10.4667  10.6105  10.6105  10.6105  13.3443
    13.3443  16.7632  16.7632  17.3186  19.8238  19.8238  19.8238  25.1631
    27.8047  27.8047  27.8047  31.5647  32.3221  32.3221  33.3744  33.3744
    33.3744  33.9369  33.9369  33.9369  36.8865  36.8865  36.8865  40.9192
    40.9192  40.9192

          k = 0.0333 0.0000 0.0000 (  3147 PWs)   bands (ev):

   -60.8939 -30.9391 -30.9388 -30.9388 -21.1357  -6.4145  -5.5303  -5.5299
    -3.1565  -3.1565  -3.1509   8.0667   8.0980   8.0980   9.9354   9.9354
    10.0161  10.4532  10.4532  10.4677  10.5506  10.7205  10.7205  13.3445
    13.4217  16.7817  16.7838  17.3458  19.8195  19.8352  19.8352  25.1677
    27.8032  27.8046  27.8046  31.5401  32.2110  32.3126  33.3554  33.3764
    33.3764  33.8818  33.8818  33.9795  36.8786  36.8786  36.9523  40.8283
    40.9671  40.9671

          k = 0.0667 0.0000 0.0000 (  3147 PWs)   bands (ev):

   -60.8939 -30.9398 -30.9388 -30.9388 -21.1349  -6.4122  -5.5291  -5.5267
    -3.1549  -3.1549  -3.1328   7.9674   8.0916   8.0916   9.7485   9.7485
     9.9863  10.3944  10.4387  10.4387  10.4707  10.9395  10.9395  13.3451
    13.6307  16.8368  16.8444  17.4270  19.8067  19.8686  19.8686  25.1804
    27.7984  27.8047  27.8047  31.4722  31.9052  32.2822  33.3017  33.3815
    33.3815  33.7246  33.7246  34.1010  36.8538  36.8538  37.1243  40.5804
    41.1020  41.1020

          k = 0.1000 0.0000 0.0000 (  3155 PWs)   bands (ev):

   -60.8939 -30.9410 -30.9387 -30.9387 -21.1336  -6.4099  -5.5272  -5.5193
    -3.1524  -3.1524  -3.1040   7.8055   8.0812   8.0812   9.5413   9.5413
     9.9389  10.1869  10.4230  10.4230  10.4757  11.1915  11.1915  13.3460
    13.9239  16.9269  16.9423  17.5605  19.7861  19.9226  19.9226  25.1984
    27.7881  27.8057  27.8057  31.3741  31.4668  32.2260  33.2229  33.3778
    33.3778  33.4942  33.4942  34.2858  36.8099  36.8099  37.3455  40.2275
    41.2117  41.2117

          k = 0.1333 0.0000 0.0000 (  3150 PWs)   bands (ev):

   -60.8938 -30.9427 -30.9386 -30.9386 -21.1318  -6.4098  -5.5246  -5.5050
    -3.1491  -3.1491  -3.0662   7.5885   8.0672   8.0672   9.3363   9.3363
     9.8771   9.9661  10.4044  10.4044  10.4823  11.4551  11.4551  13.3472
    14.2589  17.0498  17.0731  17.7437  19.7585  19.9944  19.9944  25.2168
    27.7657  27.8090  27.8090  30.9636  31.2600  32.1366  33.1332  33.1552
    33.1552  33.4218  33.4218  34.5160  36.7473  36.7473  37.5548  39.8244
    41.1119  41.1119

          k = 0.1667 0.0000 0.0000 (  3142 PWs)   bands (ev):

   -60.8938 -30.9447 -30.9385 -30.9385 -21.1297  -6.4138  -5.5215  -5.4813
    -3.1450  -3.1450  -3.0217   7.3278   8.0504   8.0504   9.1410   9.1411
     9.7532   9.8045  10.3830  10.3830  10.4904  11.7217  11.7217  13.3486
    14.6063  17.2019  17.2308  17.9733  19.7252  20.0807  20.0807  25.2292
    27.7140  27.8164  27.8164  30.4628  31.1411  32.0072  32.8055  32.8055
    33.0479  33.4353  33.4353  34.7750  36.6702  36.6702  37.6848  39.4360
    40.9367  40.9367

          k = 0.2000 0.0000 0.0000 (  3150 PWs)   bands (ev):

   -60.8938 -30.9469 -30.9384 -30.9384 -21.1272  -6.4232  -5.5179  -5.4468
    -3.1404  -3.1404  -2.9729   7.0380   8.0315   8.0315   8.9590   8.9590
     9.5577   9.7250  10.3599  10.3599  10.4996  11.9852  11.9852  13.3500
    14.9467  17.3790  17.4090  18.2450  19.6878  20.1772  20.1772  25.2273
    27.5968  27.8303  27.8303  30.0393  31.0251  31.8373  32.4255  32.4255
    32.9777  33.4538  33.4538  35.0486  36.5850  36.5850  37.6401  39.1606
    40.7135  40.7135

          k = 0.2333 0.0000 0.0000 (  3142 PWs)   bands (ev):

   -60.8937 -30.9493 -30.9383 -30.9383 -21.1246  -6.4382  -5.5141  -5.4016
    -3.1354  -3.1354  -2.9222   6.7347   8.0114   8.0114   8.7922   8.7922
     9.3821   9.6430  10.3361  10.3361  10.5095  12.2409  12.2409  13.3515
    15.2676  17.5753  17.6002  18.5543  19.6478  20.2795  20.2795  25.2017
    27.3663  27.8535  27.8535  29.7730  30.9167  31.6343  32.0318  32.0318
    32.9254  33.4736  33.4736  35.3240  36.4987  36.4987  37.3520  39.0738
    40.4593  40.4593

          k = 0.2667 0.0000 0.0000 (  3154 PWs)   bands (ev):

   -60.8937 -30.9517 -30.9382 -30.9382 -21.1220  -6.4578  -5.5103  -5.3475
    -3.1304  -3.1304  -2.8718   6.4327   7.9912   7.9912   8.6417   8.6417
     9.2267   9.5619  10.3126  10.3126  10.5196  12.4836  12.4836  13.3529
    15.5608  17.7834  17.7967  18.8969  19.6071  20.3825  20.3825  25.1404
    27.0092  27.8889  27.8889  29.7058  30.8190  31.4112  31.6361  31.6361
    32.8888  33.4929  33.4929  35.5898  36.4176  36.4176  36.8827  39.1215
    40.1916  40.1916

          k = 0.3000 0.0000 0.0000 (  3162 PWs)   bands (ev):

   -60.8937 -30.9541 -30.9380 -30.9380 -21.1194  -6.4802  -5.5065  -5.2878
    -3.1254  -3.1254  -2.8240   6.1450   7.9721   7.9721   8.5085   8.5085
     9.0911   9.4850  10.2904  10.2904  10.5296  12.7085  12.7085  13.3542
    15.8211  17.9905  17.9947  19.2685  19.5674  20.4816  20.4816  25.0244
    26.5798  27.9394  27.9394  29.8157  30.7334  31.1826  31.2480  31.2480
    32.8638  33.5105  33.5105  35.8359  36.3237  36.3469  36.3469  39.2206
    39.9263  39.9263

          k = 0.3333 0.0000 0.0000 (  3166 PWs)   bands (ev):

   -60.8936 -30.9563 -30.9379 -30.9379 -21.1170  -6.5034  -5.5029  -5.2265
    -3.1208  -3.1208  -2.7804   5.8826   7.9553   7.9553   8.3931   8.3931
     8.9752   9.4153  10.2705  10.2705  10.5389  12.9104  12.9104  13.3554
    16.0452  18.1733  18.1990  19.5305  19.6655  20.5725  20.5725  24.8217
    26.1664  28.0070  28.0070  30.0570  30.6609  30.8762  30.8762  30.9624
    32.8470  33.5254  33.5254  35.7246  36.0537  36.2895  36.2895  39.3296
    39.6771  39.6771

          k = 0.3667 0.0000 0.0000 (  3150 PWs)   bands (ev):

   -60.8936 -30.9583 -30.9378 -30.9378 -21.1148  -6.5253  -5.4998  -5.1681
    -3.1166  -3.1166  -2.7428   5.6548   7.9419   7.9419   8.2961   8.2961
     8.8794   9.3553  10.2535  10.2535  10.5472  13.0844  13.0844  13.3564
    16.2310  18.3370  18.3858  19.4979  20.0833  20.6513  20.6513  24.4996
    25.8477  28.0920  28.0920  30.3925  30.5296  30.5296  30.6016  30.7631
    32.8358  33.5371  33.5371  35.1109  36.2369  36.2468  36.2468  39.4311
    39.4556  39.4556

          k = 0.4000 0.0000 0.0000 (  3158 PWs)   bands (ev):

   -60.8936 -30.9600 -30.9377 -30.9377 -21.1130  -6.5442  -5.4972  -5.1171
    -3.1132  -3.1132  -2.7123   5.4693   7.9325   7.9325   8.2180   8.2180
     8.8040   9.3065  10.2397  10.2397  10.5541  13.2257  13.2257  13.3572
    16.3767  18.4740  18.5444  19.4710  20.5139  20.7151  20.7151  24.0743
    25.6434  28.1909  28.1909  30.2192  30.2192  30.5557  30.5956  30.7939
    32.8286  33.5454  33.5454  34.5011  36.2178  36.2178  36.3813  39.2716
    39.2716  39.5166

          k = 0.4333 0.0000 0.0000 (  3162 PWs)   bands (ev):

   -60.8936 -30.9612 -30.9377 -30.9377 -21.1117  -6.5587  -5.4952  -5.0774
    -3.1107  -3.1107  -2.6898   5.3322   7.9275   7.9275   8.1598   8.1599
     8.7496   9.2707  10.2297  10.2297  10.5593  13.3300  13.3300  13.3578
    16.4816  18.5774  18.6654  19.4509  20.7620  20.7620  20.9390  23.6141
    25.5234  28.2936  28.2936  29.9612  29.9612  30.4689  30.5230  31.2317
    32.8241  33.5508  33.5508  33.9186  36.2004  36.2004  36.4849  39.1332
    39.1332  39.5811

          k = 0.4667 0.0000 0.0000 (  3194 PWs)   bands (ev):

   -60.8936 -30.9619 -30.9376 -30.9376 -21.1109  -6.5678  -5.4940  -5.0523
    -3.1091  -3.1091  -2.6761   5.2480   7.9257   7.9257   8.1233   8.1233
     8.7165   9.2488  10.2235  10.2235  10.5625  13.3582  13.3940  13.3940
    16.5448  18.6418  18.7412  19.4385  20.7905  20.7905  21.3062  23.2123
    25.4597  28.3782  28.3782  29.7817  29.7817  30.3899  30.5035  31.6474
    32.8217  33.4175  33.5538  33.5538  36.1916  36.1916  36.5471  39.0473
    39.0473  39.6212

          k = 0.5000 0.0000 0.0000 (  3178 PWs)   bands (ev):

   -60.8936 -30.9622 -30.9376 -30.9376 -21.1106  -6.5709  -5.4936  -5.0436
    -3.1085  -3.1085  -2.6715   5.2196   7.9255   7.9255   8.1108   8.1108
     8.7055   9.2415  10.2214  10.2214  10.5636  13.3583  13.4156  13.4156
    16.5659  18.6637  18.7670  19.4344  20.8001  20.8001  21.4733  23.0318
    25.4395  28.4127  28.4127  29.7153  29.7153  30.3631  30.4970  31.8583
    32.8209  33.1785  33.5547  33.5547  36.1890  36.1890  36.5677  39.0181
    39.0181  39.6348

          k = 0.5000 0.0333 0.0333 (  3178 PWs)   bands (ev):

   -60.8936 -30.9621 -30.9379 -30.9379 -21.1102  -6.5580  -5.4889  -5.0525
    -3.1123  -3.0970  -2.6770   5.2189   7.8120   7.8821   8.0729   8.0859
     8.8198   9.2984  10.0123  10.1703  10.7690  13.4097  13.4158  13.4669
    16.6110  18.6850  18.8018  19.4657  20.7370  20.7739  21.5647  23.0197
    25.4506  28.2826  28.4098  29.2984  29.6613  30.4554  30.8199  32.0129
    32.4848  33.0351  33.7103  33.8385  36.1307  36.2127  36.5809  38.5264
    39.1161  40.2113

          k = 0.5000 0.0667 0.0667 (  3172 PWs)   bands (ev):

   -60.8935 -30.9621 -30.9386 -30.9386 -21.1089  -6.5195  -5.4751  -5.0769
    -3.1232  -3.0652  -2.6933   5.2169   7.5773   7.7715   7.9664   8.0049
     9.0581   9.4485   9.6798  10.0525  11.0879  13.3950  13.4172  13.7630
    16.7402  18.7482  18.8923  19.5659  20.6026  20.6968  21.7812  22.9850
    25.4837  27.9275  28.3983  28.6658  29.5527  30.6740  31.1150  31.9188
    32.5324  32.7398  33.9973  34.2562  35.9659  36.2838  36.6401  37.9268
    39.4016  41.0555

          k = 0.5000 0.1000 0.1000 (  3164 PWs)   bands (ev):

   -60.8935 -30.9619 -30.9397 -30.9397 -21.1069  -6.4562  -5.4524  -5.1117
    -3.1410  -3.0211  -2.7205   5.2140   7.3212   7.6287   7.8087   7.8539
     9.3165   9.3243   9.6536   9.9393  11.4244  13.3790  13.4221  14.1868
    16.9377  18.8518  19.0051  19.7462  20.4501  20.5730  22.0609  22.9326
    25.5382  27.4233  28.0749  28.3679  29.4430  30.9502  31.2311  31.3374
    32.3351  33.3106  34.2804  34.6211  35.7232  36.4012  36.7857  37.4437
    39.8480  41.9175

          k = 0.5000 0.1333 0.1333 (  3162 PWs)   bands (ev):

   -60.8934 -30.9617 -30.9413 -30.9412 -21.1043  -6.3695  -5.4217  -5.1499
    -3.1646  -2.9750  -2.7580   5.2104   7.0806   7.4782   7.6189   7.6274
     8.9336   9.5869   9.8837   9.8839  11.7661  13.3711  13.4340  14.6872
    17.1827  18.9930  19.1105  20.0007  20.2918  20.4086  22.3788  22.8708
    25.6130  26.8451  27.5778  28.2985  29.3469  30.8034  31.2413  31.2755
    31.8334  34.1850  34.4947  34.9174  35.4490  36.5632  36.8354  37.2981
    40.4102  41.4071

          k = 0.5000 0.1667 0.1667 (  3150 PWs)   bands (ev):

   -60.8934 -30.9615 -30.9431 -30.9431 -21.1010  -6.2614  -5.3838  -5.1850
    -3.1931  -2.9376  -2.8056   5.2066   6.8728   7.3331   7.3393   7.4121
     8.5419   9.8344   9.9018  10.1192  12.1049  13.3799  13.4570  15.2294
    17.4539  19.1685  19.1968  20.1237  20.2114  20.2933  22.7221  22.8099
    25.7060  26.2562  27.2035  28.1596  29.2641  30.3676  31.2669  31.2866
    31.5021  34.6463  35.0778  35.1539  35.2068  36.5245  36.7672  37.7101
    40.5071  41.0249

          k = 0.5000 0.2000 0.2000 (  3164 PWs)   bands (ev):

   -60.8933 -30.9612 -30.9452 -30.9452 -21.0974  -6.1345  -5.3401  -5.2116
    -3.2252  -2.9184  -2.8624   5.2028   6.7081   7.0148   7.1970   7.1998
     8.1561   9.9847  10.0625  10.3454  12.4336  13.4111  13.4947  15.7893
    17.7324  19.2583  19.3743  19.9391  19.9895  20.5716  22.7553  23.0814
    25.7181  25.8146  26.9714  27.9237  29.1896  30.0706  30.6762  31.2699
    31.6749  34.7805  35.0752  35.3389  35.9277  36.1827  37.0159  38.2658
    39.6908  41.4284

          k = 0.5000 0.2333 0.2333 (  3160 PWs)   bands (ev):

   -60.8933 -30.9609 -30.9475 -30.9474 -21.0935  -5.9919  -5.2921  -5.2259
    -3.2594  -2.9277  -2.9236   5.1992   6.5916   6.6787   6.9752   7.0814
     7.7945  10.1164  10.2703  10.5518  12.7454  13.4669  13.5496  16.3488
    18.0023  19.2856  19.6052  19.7345  19.7519  20.7893  22.6905  23.4479
    25.3023  25.9380  26.8888  27.5954  29.1170  29.9172  30.1007  31.2203
    31.7083  34.9234  35.1238  35.4703  35.8684  36.5978  37.3643  38.8454
    39.0166  40.7284

          k = 0.5000 0.2667 0.2667 (  3164 PWs)   bands (ev):

   -60.8932 -30.9606 -30.9498 -30.9497 -21.0895  -5.8378  -5.2418  -5.2255
    -3.2941  -3.0001  -2.9563   5.1952   6.3505   6.5236   6.7435   6.9789
     7.4775  10.2808  10.4588  10.7314  13.0348  13.5454  13.6214  16.8918
    18.2495  19.2640  19.5082  19.5145  19.8551  20.9287  22.5682  23.8127
    25.0797  26.0802  26.9459  27.2134  29.0402  29.5747  29.8760  31.1311
    31.6000  35.0169  35.3690  35.5294  35.6722  36.8278  37.8890  38.6295
    39.3816  39.9663

          k = 0.5000 0.3000 0.3000 (  3172 PWs)   bands (ev):

   -60.8931 -30.9603 -30.9520 -30.9519 -21.0856  -5.6771  -5.2100  -5.1912
    -3.3279  -3.0781  -3.0152   5.1900   6.0441   6.4992   6.5005   6.8924
     7.2209  10.4640  10.6301  10.8805  13.2971  13.6415  13.7071  17.4014
    18.4582  19.1798  19.2701  19.2957  20.1164  21.0075  22.3597  24.1668
    25.0623  26.2451  26.8210  27.1192  28.9547  29.1285  29.9103  31.0002
    31.4007  34.8905  35.4800  35.7687  35.7852  36.6108  38.1717  38.9122
    39.3321  39.8186

          k = 0.5000 0.3333 0.3333 (  3178 PWs)   bands (ev):

   -60.8931 -30.9601 -30.9540 -30.9540 -21.0820  -5.5157  -5.1805  -5.1426
    -3.3594  -3.1594  -3.0952   5.1820   5.7697   6.2568   6.5098   6.8214
     7.0270  10.6526  10.7861  10.9987  13.5283  13.7475  13.8004  17.8555
    18.5946  19.0295  19.0552  19.1195  20.3791  21.0566  22.1006  24.5009
    25.1715  26.4268  26.4489  27.3812  28.7887  28.8594  29.9946  30.8365
    31.1705  34.6313  35.2851  36.1326  36.1348  36.2653  38.2805  38.8950
    39.5886  40.1125

          k = 0.5000 0.3667 0.3667 (  3162 PWs)   bands (ev):

   -60.8930 -30.9598 -30.9559 -30.9558 -21.0788  -5.3611  -5.1404  -5.0985
    -3.3871  -3.2405  -3.1878   5.1693   5.5353   6.0334   6.5435   6.7650
     6.8858  10.8336  10.9265  11.0884  13.7252  13.8540  13.8929  18.2096
    18.5883  18.8288  18.9037  19.0685  20.6304  21.0969  21.8474  24.8052
    25.3053  26.1173  26.6098  27.6991  28.5724  28.7576  30.1123  30.6651
    30.9526  34.3640  34.9511  35.5491  36.6045  36.8115  38.4238  38.6694
    40.2438  40.2985

          k = 0.5000 0.4000 0.4000 (  3158 PWs)   bands (ev):

   -60.8930 -30.9596 -30.9574 -30.9573 -21.0761  -5.2222  -5.0949  -5.0613
    -3.4099  -3.3167  -3.2818   5.1504   5.3468   5.8505   6.5874   6.7223
     6.7860  10.9936  11.0481  11.1530  13.8840  13.9511  13.9758  18.3571
    18.4694  18.6104  18.9182  19.1253  20.8548  21.1342  21.6358  25.0681
    25.4004  25.8408  26.7768  28.0242  28.4751  28.6580  30.2487  30.5283
    30.7712  34.1283  34.5459  34.9392  37.1552  37.3718  38.6034  38.6149
    40.2152  40.6011

          k = 0.5000 0.4333 0.4333 (  3150 PWs)   bands (ev):

   -60.8929 -30.9595 -30.9585 -30.9585 -21.0741  -5.1096  -5.0520  -5.0329
    -3.4269  -3.3811  -3.3639   5.1266   5.2089   5.7208   6.6290   6.6924
     6.7195  11.1198  11.1443  11.1961  14.0011  14.0292  14.0412  18.3176
    18.3458  18.4150  19.0759  19.1942  21.0345  21.1655  21.4813  25.2748
    25.4439  25.6314  26.9127  28.2909  28.4623  28.5730  30.3844  30.4724
    30.6380  33.9445  34.1627  34.3737  37.7538  37.9171  38.6206  38.8646
    40.0344  40.1586

          k = 0.5000 0.4667 0.4667 (  3158 PWs)   bands (ev):

   -60.8929 -30.9594 -30.9592 -30.9592 -21.0729  -5.0353  -5.0207  -5.0152
    -3.4374  -3.4252  -3.4206   5.1053   5.1248   5.6465   6.6584   6.6748
     6.6814  11.2008  11.2069  11.2207  14.0730  14.0798  14.0830  18.2563
    18.2616  18.2802  19.2091  19.2411  21.1518  21.1859  21.3887  25.4087
    25.4547  25.5002  27.0029  28.4478  28.4830  28.5155  30.4896  30.4999
    30.5572  33.8274  33.8877  33.9497  38.3382  38.4077  38.6574  39.1728
    39.7236  39.7288

          k = 0.5000 0.5000 0.5000 (  3184 PWs)   bands (ev):

   -60.8929 -30.9594 -30.9594 -30.9594 -21.0725  -5.0091  -5.0091  -5.0091
    -3.4410  -3.4410  -3.4410   5.0965   5.0965   5.6227   6.6689   6.6689
     6.6689  11.2286  11.2286  11.2286  14.0973  14.0973  14.0973  18.2322
    18.2322  18.2322  19.2573  19.2574  21.1926  21.1926  21.3583  25.4553
    25.4553  25.4553  27.0348  28.4952  28.4952  28.4952  30.5302  30.5302
    30.5302  33.7870  33.7870  33.7870  38.6743  38.6743  38.6743  39.4824
    39.4824  39.4824

          k = 0.4667 0.4667 0.4667 (  3154 PWs)   bands (ev):

   -60.8929 -30.9592 -30.9592 -30.9592 -21.0731  -5.0505  -5.0209  -5.0209
    -3.4295  -3.4295  -3.4049   5.1246   5.1246   5.6576   6.6568   6.6810
     6.6810  11.1930  11.1931  11.2138  14.0659  14.0708  14.0708  18.2800
    18.2800  18.2875  19.2092  19.2092  21.1569  21.1569  21.4036  25.4082
    25.4770  25.4770  26.9877  28.4161  28.5076  28.5076  30.4781  30.4781
    30.5682  33.8743  33.9681  33.9681  38.2409  38.2409  38.7011  39.1072
    39.7956  39.7956

          k = 0.4333 0.4333 0.4333 (  3160 PWs)   bands (ev):

   -60.8929 -30.9585 -30.9585 -30.9585 -21.0749  -5.1619  -5.0544  -5.0544
    -3.3975  -3.3975  -3.3103   5.2083   5.2083   5.7583   6.6281   6.7177
     6.7177  11.0924  11.0924  11.1701  13.9735  13.9922  13.9922  18.4013
    18.4013  18.4383  19.0797  19.0797  21.0524  21.0524  21.5403  25.2538
    25.5430  25.5430  26.8667  28.2364  28.5287  28.5287  30.3859  30.3859
    30.6798  34.0675  34.4433  34.4433  37.5344  37.5344  38.7708  38.7832
    40.1633  40.1633

          k = 0.4000 0.4000 0.4000 (  3169 PWs)   bands (ev):

   -60.8930 -30.9575 -30.9574 -30.9574 -21.0779  -5.3164  -5.1043  -5.1043
    -3.3507  -3.3507  -3.1852   5.3455   5.3455   5.9116   6.6077   6.7809
     6.7809  10.9429  10.9429  11.1002  13.8250  13.8648  13.8649  18.4802
    18.4802  18.6424  18.9637  18.9637  20.8889  20.8889  21.7665  24.9726
    25.6540  25.6541  26.7326  28.0589  28.5244  28.5244  30.3686  30.3686
    30.8581  34.2351  35.0377  35.0377  36.8925  36.8925  38.5064  38.9249
    40.3425  40.3425

          k = 0.3667 0.3667 0.3667 (  3169 PWs)   bands (ev):

   -60.8931 -30.9561 -30.9560 -30.9560 -21.0820  -5.4901  -5.1642  -5.1642
    -3.2966  -3.2966  -3.0564   5.5330   5.5330   6.0855   6.6420   6.8733
     6.8733  10.7656  10.7656  11.0082  13.6269  13.6938  13.6938  18.2854
    18.2855  18.8423  19.0560  19.0560  20.6883  20.6883  22.0594  24.5994
    25.8060  25.8060  26.6520  27.9426  28.4865  28.4865  30.4893  30.4893
    31.0920  34.3010  35.3042  35.3042  36.7322  36.7322  38.2287  39.1330
    40.3209  40.3209

          k = 0.3333 0.3333 0.3333 (  3163 PWs)   bands (ev):

   -60.8931 -30.9544 -30.9543 -30.9543 -21.0869  -5.6659  -5.2279  -5.2279
    -3.2424  -3.2424  -2.9435   5.7659   5.7659   6.2304   6.7944   6.9985
     6.9985  10.5807  10.5807  10.8993  13.3864  13.4852  13.4852  17.9065
    17.9065  18.9869  19.2059  19.2059  20.4951  20.4951  22.3101  24.2883
    25.9872  25.9872  26.6570  27.9028  28.4590  28.4590  30.7380  30.7380
    31.3671  34.2792  34.9404  34.9404  37.2791  37.2791  37.8054  39.4159
    40.2799  40.2799

          k = 0.3000 0.3000 0.3000 (  3166 PWs)   bands (ev):

   -60.8932 -30.9525 -30.9523 -30.9523 -21.0925  -5.8321  -5.2904  -5.2904
    -3.1940  -3.1940  -2.8603   6.0374   6.0374   6.3472   7.0730   7.1605
     7.1605  10.4059  10.4059  10.7792  13.1113  13.2459  13.2459  17.4457
    17.4457  19.0513  19.2228  19.2228  20.3810  20.3810  22.2686  24.3087
    26.1827  26.1828  26.7645  27.9363  28.5080  28.5080  31.0734  31.0734
    31.6669  34.2316  34.4551  34.4551  37.1663  37.8774  37.8774  39.7827
    40.4847  40.4847

          k = 0.2667 0.2667 0.2667 (  3166 PWs)   bands (ev):

   -60.8933 -30.9504 -30.9502 -30.9502 -21.0987  -5.9812  -5.3480  -5.3480
    -3.1559  -3.1559  -2.8144   6.3388   6.3388   6.4848   7.3635   7.3635
     7.4299  10.2554  10.2554  10.6539  12.8105  12.9825  12.9825  16.9345
    16.9345  19.0368  19.0425  19.0425  20.3669  20.3669  21.8837  24.6635
    26.3852  26.3852  27.0174  28.0302  28.6820  28.6820  31.4575  31.4575
    31.9743  34.0359  34.0360  34.2211  36.3638  38.2312  38.2312  40.2411
    40.9270  40.9270

          k = 0.2333 0.2333 0.2333 (  3161 PWs)   bands (ev):

   -60.8934 -30.9483 -30.9481 -30.9481 -21.1051  -6.1083  -5.3981  -5.3981
    -3.1301  -3.1301  -2.8076   6.6583   6.6583   6.6696   7.6111   7.6111
     7.8301  10.1404  10.1404  10.5289  12.4945  12.7003  12.7003  16.3910
    16.3910  18.7291  18.7291  18.9545  20.3727  20.3727  21.3650  25.0427
    26.6007  26.6007  27.4928  28.1590  28.9936  28.9936  31.8612  31.8612
    32.2734  33.7219  33.7219  34.2862  35.5196  38.3997  38.3997  40.7963
    41.1685  41.1685

          k = 0.2000 0.2000 0.2000 (  3143 PWs)   bands (ev):

   -60.8935 -30.9462 -30.9460 -30.9460 -21.1117  -6.2110  -5.4396  -5.4396
    -3.1172  -3.1172  -2.8363   6.9027   6.9815   6.9815   7.9048   7.9048
     8.2536  10.0704  10.0704  10.4097  12.1748  12.4034  12.4034  15.8302
    15.8302  18.3554  18.3554  18.8076  20.3363  20.3363  20.8515  25.2648
    26.8365  26.8365  28.2002  28.2971  29.4259  29.4259  32.2609  32.2609
    32.5503  33.5221  33.5221  34.3429  34.8597  38.4840  38.4840  41.1601
    41.1601  41.4488

          k = 0.1667 0.1667 0.1667 (  3164 PWs)   bands (ev):

   -60.8936 -30.9442 -30.9440 -30.9440 -21.1181  -6.2892  -5.4722  -5.4722
    -3.1155  -3.1155  -2.8919   7.1699   7.2912   7.2913   8.2421   8.2421
     8.6860  10.0540  10.0540  10.3008  11.8630  12.0939  12.0939  15.2674
    15.2674  17.9645  17.9645  18.5852  20.2499  20.2499  20.4232  25.3363
    27.0846  27.0846  28.3399  29.0982  29.9501  29.9501  32.6333  32.6333
    32.7951  33.4362  33.4362  33.9326  34.9512  38.4724  38.4724  40.9847
    40.9847  41.4762

          k = 0.1333 0.1333 0.1333 (  3149 PWs)   bands (ev):

   -60.8937 -30.9424 -30.9422 -30.9422 -21.1239  -6.3447  -5.4962  -5.4962
    -3.1222  -3.1222  -2.9628   7.4472   7.5698   7.5698   8.6150   8.6150
     9.1145  10.0984  10.0984  10.2063  11.5686  11.7719  11.7719  14.7196
    14.7196  17.5878  17.5878  18.2835  20.1254  20.1337  20.1337  25.3211
    27.3231  27.3231  28.3085  29.9818  30.5342  30.5342  32.9476  32.9476
    33.0008  33.4615  33.4615  33.5589  35.3606  38.2808  38.2808  40.8486
    40.8486  41.3226

          k = 0.1000 0.1000 0.1000 (  3149 PWs)   bands (ev):

   -60.8938 -30.9409 -30.9408 -30.9408 -21.1289  -6.3808  -5.5128  -5.5128
    -3.1334  -3.1334  -3.0361   7.7055   7.7996   7.7996   9.0105   9.0105
     9.5254  10.1294  10.2034  10.2034  11.2967  11.4370  11.4370  14.2095
    14.2095  17.2539  17.2539  17.9394  19.9535  20.0140  20.0140  25.2700
    27.5274  27.5274  28.1797  30.7281  31.1392  31.1392  33.1633  33.1685
    33.1685  33.4628  33.5879  33.5879  35.8539  37.8928  37.8928  40.9033
    40.9033  41.0287

          k = 0.0667 0.0667 0.0667 (  3140 PWs)   bands (ev):

   -60.8938 -30.9397 -30.9397 -30.9397 -21.1327  -6.4019  -5.5233  -5.5233
    -3.1452  -3.1452  -3.0994   7.9156   7.9673   7.9673   9.4120   9.4121
     9.9044  10.0727  10.3496  10.3496  11.0455  11.0914  11.0914  13.7717
    13.7717  16.9905  16.9905  17.6219  19.8686  19.9132  19.9132  25.2155
    27.6803  27.6803  28.0053  31.2289  31.7079  31.7079  33.2803  33.2980
    33.2980  33.6154  33.7569  33.7569  36.3459  37.4252  37.4252  40.8723
    41.0030  41.0030

          k = 0.0333 0.0333 0.0333 (  3146 PWs)   bands (ev):

   -60.8939 -30.9390 -30.9390 -30.9390 -21.1352  -6.4123  -5.5289  -5.5289
    -3.1538  -3.1538  -3.1420   8.0526   8.0672   8.0672   9.7944   9.7944
    10.0379  10.2374  10.4797  10.4798  10.7562  10.7562  10.8053  13.4603
    13.4603  16.8215  16.8215  17.3988  19.8331  19.8469  19.8469  25.1768
    27.7735  27.7735  27.8603  31.4873  32.1474  32.1474  33.3508  33.3602
    33.3602  33.8383  33.8883  33.8883  36.7333  37.0392  37.0392  40.8815
    40.9483  40.9483

          k = 0.0000 0.0000 0.0000 (  3119 PWs)   bands (ev):

   -60.8939 -30.9388 -30.9388 -30.9388 -21.1360  -6.4154  -5.5307  -5.5307
    -3.1570  -3.1570  -3.1570   8.1002   8.1002   8.1002  10.0262  10.0262
    10.0262  10.4667  10.4667  10.4667  10.6105  10.6105  10.6105  13.3443
    13.3443  16.7632  16.7632  17.3186  19.8238  19.8238  19.8238  25.1631
    27.8047  27.8047  27.8047  31.5647  32.3221  32.3221  33.3744  33.3744
    33.3744  33.9369  33.9369  33.9369  36.8865  36.8865  36.8865  40.9192
    40.9192  40.9192

          k = 0.0333 0.0333 0.0333 (  3146 PWs)   bands (ev):

   -60.8939 -30.9390 -30.9390 -30.9390 -21.1352  -6.4123  -5.5289  -5.5289
    -3.1538  -3.1538  -3.1420   8.0526   8.0672   8.0672   9.7944   9.7944
    10.0379  10.2374  10.4797  10.4798  10.7562  10.7562  10.8053  13.4603
    13.4603  16.8215  16.8215  17.3988  19.8331  19.8469  19.8469  25.1768
    27.7735  27.7735  27.8603  31.4873  32.1474  32.1474  33.3508  33.3602
    33.3602  33.8383  33.8883  33.8883  36.7333  37.0392  37.0392  40.8815
    40.9483  40.9483

          k = 0.0667 0.0667 0.0667 (  3140 PWs)   bands (ev):

   -60.8938 -30.9397 -30.9397 -30.9397 -21.1327  -6.4019  -5.5233  -5.5233
    -3.1452  -3.1452  -3.0994   7.9156   7.9673   7.9673   9.4120   9.4121
     9.9044  10.0727  10.3496  10.3496  11.0455  11.0914  11.0914  13.7717
    13.7717  16.9905  16.9905  17.6219  19.8686  19.9132  19.9132  25.2155
    27.6803  27.6803  28.0053  31.2289  31.7079  31.7079  33.2803  33.2980
    33.2980  33.6154  33.7569  33.7569  36.3459  37.4252  37.4252  40.8723
    41.0030  41.0030

          k = 0.1000 0.1000 0.1000 (  3149 PWs)   bands (ev):

   -60.8938 -30.9409 -30.9408 -30.9408 -21.1289  -6.3808  -5.5128  -5.5128
    -3.1334  -3.1334  -3.0361   7.7055   7.7996   7.7996   9.0105   9.0105
     9.5254  10.1294  10.2034  10.2034  11.2967  11.4370  11.4370  14.2095
    14.2095  17.2539  17.2539  17.9394  19.9535  20.0140  20.0140  25.2700
    27.5274  27.5274  28.1797  30.7281  31.1392  31.1392  33.1633  33.1685
    33.1685  33.4628  33.5879  33.5879  35.8539  37.8928  37.8928  40.9033
    40.9033  41.0287

          k = 0.1333 0.1333 0.1333 (  3149 PWs)   bands (ev):

   -60.8937 -30.9424 -30.9422 -30.9422 -21.1239  -6.3447  -5.4962  -5.4962
    -3.1222  -3.1222  -2.9628   7.4472   7.5698   7.5698   8.6150   8.6150
     9.1145  10.0984  10.0984  10.2063  11.5686  11.7719  11.7719  14.7196
    14.7196  17.5878  17.5878  18.2835  20.1254  20.1337  20.1337  25.3211
    27.3231  27.3231  28.3085  29.9818  30.5342  30.5342  32.9476  32.9476
    33.0008  33.4615  33.4615  33.5589  35.3606  38.2808  38.2808  40.8486
    40.8486  41.3226

          k = 0.1667 0.1667 0.1667 (  3164 PWs)   bands (ev):

   -60.8936 -30.9442 -30.9440 -30.9440 -21.1181  -6.2892  -5.4722  -5.4722
    -3.1155  -3.1155  -2.8919   7.1699   7.2912   7.2913   8.2421   8.2421
     8.6860  10.0540  10.0540  10.3008  11.8630  12.0939  12.0939  15.2674
    15.2674  17.9645  17.9645  18.5852  20.2499  20.2499  20.4232  25.3363
    27.0846  27.0846  28.3399  29.0982  29.9501  29.9501  32.6333  32.6333
    32.7951  33.4362  33.4362  33.9326  34.9512  38.4724  38.4724  40.9847
    40.9847  41.4762

          k = 0.2000 0.2000 0.2000 (  3143 PWs)   bands (ev):

   -60.8935 -30.9462 -30.9460 -30.9460 -21.1117  -6.2110  -5.4396  -5.4396
    -3.1172  -3.1172  -2.8363   6.9027   6.9815   6.9815   7.9048   7.9048
     8.2536  10.0704  10.0704  10.4097  12.1748  12.4034  12.4034  15.8302
    15.8302  18.3554  18.3554  18.8076  20.3363  20.3363  20.8515  25.2648
    26.8365  26.8365  28.2002  28.2971  29.4259  29.4259  32.2609  32.2609
    32.5503  33.5221  33.5221  34.3429  34.8597  38.4840  38.4840  41.1601
    41.1601  41.4488

          k = 0.2333 0.2333 0.2333 (  3161 PWs)   bands (ev):

   -60.8934 -30.9483 -30.9481 -30.9481 -21.1051  -6.1083  -5.3981  -5.3981
    -3.1301  -3.1301  -2.8076   6.6583   6.6583   6.6696   7.6111   7.6111
     7.8301  10.1404  10.1404  10.5289  12.4945  12.7003  12.7003  16.3910
    16.3910  18.7291  18.7291  18.9545  20.3727  20.3727  21.3650  25.0427
    26.6007  26.6007  27.4928  28.1590  28.9936  28.9936  31.8612  31.8612
    32.2734  33.7219  33.7219  34.2862  35.5196  38.3997  38.3997  40.7963
    41.1685  41.1685

          k = 0.2667 0.2667 0.2667 (  3166 PWs)   bands (ev):

   -60.8933 -30.9504 -30.9502 -30.9502 -21.0987  -5.9812  -5.3480  -5.3480
    -3.1559  -3.1559  -2.8144   6.3388   6.3388   6.4848   7.3635   7.3635
     7.4299  10.2554  10.2554  10.6539  12.8105  12.9825  12.9825  16.9345
    16.9345  19.0368  19.0425  19.0425  20.3669  20.3669  21.8837  24.6635
    26.3852  26.3852  27.0174  28.0302  28.6820  28.6820  31.4575  31.4575
    31.9743  34.0359  34.0360  34.2211  36.3638  38.2312  38.2312  40.2411
    40.9270  40.9270

          k = 0.3000 0.3000 0.3000 (  3166 PWs)   bands (ev):

   -60.8932 -30.9525 -30.9523 -30.9523 -21.0925  -5.8321  -5.2904  -5.2904
    -3.1940  -3.1940  -2.8603   6.0374   6.0374   6.3472   7.0730   7.1605
     7.1605  10.4059  10.4059  10.7792  13.1113  13.2459  13.2459  17.4457
    17.4457  19.0513  19.2228  19.2228  20.3810  20.3810  22.2686  24.3087
    26.1827  26.1828  26.7645  27.9363  28.5080  28.5080  31.0734  31.0734
    31.6669  34.2316  34.4551  34.4551  37.1663  37.8774  37.8774  39.7827
    40.4847  40.4847

          k = 0.3333 0.3333 0.3333 (  3163 PWs)   bands (ev):

   -60.8931 -30.9544 -30.9543 -30.9543 -21.0869  -5.6659  -5.2279  -5.2279
    -3.2424  -3.2424  -2.9435   5.7659   5.7659   6.2304   6.7944   6.9985
     6.9985  10.5807  10.5807  10.8993  13.3864  13.4852  13.4852  17.9065
    17.9065  18.9869  19.2059  19.2059  20.4951  20.4951  22.3101  24.2883
    25.9872  25.9872  26.6570  27.9028  28.4590  28.4590  30.7380  30.7380
    31.3671  34.2792  34.9404  34.9404  37.2791  37.2791  37.8054  39.4159
    40.2799  40.2799

          k = 0.3667 0.3667 0.3667 (  3169 PWs)   bands (ev):

   -60.8931 -30.9561 -30.9560 -30.9560 -21.0820  -5.4901  -5.1642  -5.1642
    -3.2966  -3.2966  -3.0564   5.5330   5.5330   6.0855   6.6420   6.8733
     6.8733  10.7656  10.7656  11.0082  13.6269  13.6938  13.6938  18.2854
    18.2855  18.8423  19.0560  19.0560  20.6883  20.6883  22.0594  24.5994
    25.8060  25.8060  26.6520  27.9426  28.4865  28.4865  30.4893  30.4893
    31.0920  34.3010  35.3042  35.3042  36.7322  36.7322  38.2287  39.1330
    40.3209  40.3209

          k = 0.4000 0.4000 0.4000 (  3169 PWs)   bands (ev):

   -60.8930 -30.9575 -30.9574 -30.9574 -21.0779  -5.3164  -5.1043  -5.1043
    -3.3507  -3.3507  -3.1852   5.3455   5.3455   5.9116   6.6077   6.7809
     6.7809  10.9429  10.9429  11.1002  13.8250  13.8648  13.8649  18.4802
    18.4802  18.6424  18.9637  18.9637  20.8889  20.8889  21.7665  24.9726
    25.6540  25.6541  26.7326  28.0589  28.5244  28.5244  30.3686  30.3686
    30.8581  34.2351  35.0377  35.0377  36.8925  36.8925  38.5064  38.9249
    40.3425  40.3425

          k = 0.4333 0.4333 0.4333 (  3160 PWs)   bands (ev):

   -60.8929 -30.9585 -30.9585 -30.9585 -21.0749  -5.1619  -5.0544  -5.0544
    -3.3975  -3.3975  -3.3103   5.2083   5.2083   5.7583   6.6281   6.7177
     6.7177  11.0924  11.0924  11.1701  13.9735  13.9922  13.9922  18.4013
    18.4013  18.4383  19.0797  19.0797  21.0524  21.0524  21.5403  25.2538
    25.5430  25.5430  26.8667  28.2364  28.5287  28.5287  30.3859  30.3859
    30.6798  34.0675  34.4433  34.4433  37.5344  37.5344  38.7708  38.7832
    40.1633  40.1633

          k = 0.4667 0.4667 0.4667 (  3154 PWs)   bands (ev):

   -60.8929 -30.9592 -30.9592 -30.9592 -21.0731  -5.0505  -5.0209  -5.0209
    -3.4295  -3.4295  -3.4049   5.1246   5.1246   5.6576   6.6568   6.6810
     6.6810  11.1930  11.1931  11.2138  14.0659  14.0708  14.0708  18.2800
    18.2800  18.2875  19.2092  19.2092  21.1569  21.1569  21.4036  25.4082
    25.4770  25.4770  26.9877  28.4161  28.5076  28.5076  30.4781  30.4781
    30.5682  33.8743  33.9681  33.9681  38.2409  38.2409  38.7011  39.1072
    39.7956  39.7956

          k = 0.5000 0.5000 0.5000 (  3184 PWs)   bands (ev):

   -60.8929 -30.9594 -30.9594 -30.9594 -21.0725  -5.0091  -5.0091  -5.0091
    -3.4410  -3.4410  -3.4410   5.0965   5.0965   5.6227   6.6689   6.6689
     6.6689  11.2286  11.2286  11.2286  14.0973  14.0973  14.0973  18.2322
    18.2322  18.2322  19.2573  19.2574  21.1926  21.1926  21.3583  25.4553
    25.4553  25.4553  27.0348  28.4952  28.4952  28.4952  30.5302  30.5302
    30.5302  33.7870  33.7870  33.7870  38.6743  38.6743  38.6743  39.4824
    39.4824  39.4824

     Writing all to output data dir ./QE_tmp/sro.save/

     init_run     :      1.24s CPU      1.29s WALL (       1 calls)
     electrons    :    106.79s CPU    108.04s WALL (       1 calls)

     Called by init_run:
     wfcinit      :      0.00s CPU      0.00s WALL (       1 calls)
     potinit      :      0.23s CPU      0.23s WALL (       1 calls)
     hinit0       :      0.63s CPU      0.63s WALL (       1 calls)

     Called by electrons:
     c_bands      :    106.79s CPU    108.04s WALL (       1 calls)
     v_of_rho     :      0.04s CPU      0.05s WALL (       1 calls)
     newd         :      0.14s CPU      0.18s WALL (       1 calls)
     PAW_pot      :      0.03s CPU      0.03s WALL (       1 calls)

     Called by c_bands:
     init_us_2    :      0.03s CPU      0.03s WALL (      61 calls)
     init_us_2:cp :      0.02s CPU      0.03s WALL (      61 calls)
     paro_k       :    102.96s CPU    104.14s WALL (      61 calls)

     Called by paro_*:
     h_psi        :     67.69s CPU     68.46s WALL (    4508 calls)
     s_psi        :      1.60s CPU      1.62s WALL (    4508 calls)
     g_psi        :      1.00s CPU      1.05s WALL (   87252 calls)

     Called by h_psi:
     h_psi:calbec :      3.40s CPU      3.43s WALL (    4508 calls)
     vloc_psi     :     62.48s CPU     63.21s WALL (    4508 calls)
     add_vuspsi   :      1.68s CPU      1.69s WALL (    4508 calls)

     General routines
     calbec       :      3.38s CPU      3.42s WALL (    4508 calls)
     fft          :      0.32s CPU      0.32s WALL (      13 calls)
     ffts         :      0.15s CPU      0.15s WALL (       1 calls)
     fftw         :     57.20s CPU     57.84s WALL (  142458 calls)
     interpolate  :      0.15s CPU      0.15s WALL (       1 calls)
     davcio       :      0.02s CPU      0.02s WALL (     122 calls)

     Parallel routines

     PWSCF        :   1m48.59s CPU   1m50.08s WALL


   This run was terminated on:  22: 0:15  16Jun2025            

=------------------------------------------------------------------------------=
   JOB DONE.
=------------------------------------------------------------------------------=
