
     Program PWSCF v.7.2 starts on 16Jun2025 at 21:34:35 

     This program is part of the open-source Quantum ESPRESSO suite
     for quantum simulation of materials; please cite
         "P. Giannozzi et al., J. Phys.:Condens. Matter 21 395502 (2009);
         "P. Giannozzi et al., J. Phys.:Condens. Matter 29 465901 (2017);
         "P. Giannozzi et al., J. Chem. Phys. 152 154105 (2020);
          URL http://www.quantum-espresso.org", 
     in publications or presentations arising from this work. More details at
     http://www.quantum-espresso.org/quote

     Parallel version (MPI & OpenMP), running on       8 processor cores
     Number of MPI processes:                 8
     Threads/MPI process:                     1

     MPI processes distributed on     1 nodes
     8227 MiB available memory on the printing compute node when the environment starts

     Reading input from sro.scf.in
Warning: card &CELL ignored
Warning: card / ignored

     Current dimensions of program PWSCF are:
     Max number of different atomic species (ntypx) = 10
     Max number of k-points (npk) =  40000
     Max angular momentum in pseudopotentials (lmaxx) =  4
     file O.pbesol-n-kjpaw_psl.0.1.UPF: wavefunction(s)  2P renormalized
     Message from routine setup:
     using ibrav=0 with symmetry is DISCOURAGED, use correct ibrav instead

     R & G space division:  proc/nbgrp/npool/nimage =       8
     Subspace diagonalization in iterative solution of the eigenvalue problem:
     a serial algorithm will be used


     Parallelization info
     --------------------
     sticks:   dense  smooth     PW     G-vecs:    dense   smooth      PW
     Min         390     130     36                16434     3166     484
     Max         391     131     37                16439     3169     487
     Sum        3125    1041    293               131491    25341    3887

     Using Slab Decomposition



     bravais-lattice index     =            0
     lattice parameter (alat)  =       7.3852  a.u.
     unit-cell volume          =     402.8039 (a.u.)^3
     number of atoms/cell      =            5
     number of atomic types    =            3
     number of electrons       =        44.00
     number of Kohn-Sham states=           26
     kinetic-energy cutoff     =      60.0000  Ry
     charge density cutoff     =     720.0000  Ry
     scf convergence threshold =      1.0E-10
     mixing beta               =       0.1000
     number of iterations used =            8  local-TF  mixing
     Exchange-correlation= SLA  PW   PSX  PSC
                           (   1   4  10   8   0   0   0)

     celldm(1)=   7.385239  celldm(2)=   0.000000  celldm(3)=   0.000000
     celldm(4)=   0.000000  celldm(5)=   0.000000  celldm(6)=   0.000000

     crystal axes: (cart. coord. in units of alat)
               a(1) = (   1.000000   0.000000   0.000000 )  
               a(2) = (   0.000000   1.000000   0.000000 )  
               a(3) = (   0.000000   0.000000   1.000000 )  

     reciprocal axes: (cart. coord. in units 2 pi/alat)
               b(1) = (  1.000000  0.000000  0.000000 )  
               b(2) = (  0.000000  1.000000  0.000000 )  
               b(3) = (  0.000000  0.000000  1.000000 )  


     PseudoPot. # 1 for Sr read from file:
     ./Pseudos/sr_pbesol_v1.uspp.F.UPF
     MD5 check sum: 635bff1625df5273dba4129a01ed8c82
     Pseudo is Ultrasoft + core correction, Zval = 10.0
     Generated by new atomic code, or converted to UPF format
     Using radial grid of  883 points,  6 beta functions with: 
                l(1) =   0
                l(2) =   0
                l(3) =   1
                l(4) =   1
                l(5) =   2
                l(6) =   2
     Q(r) pseudized with  6 coefficients,  rinner =    1.400   1.400   1.400
                                                       1.400   1.400

     PseudoPot. # 2 for Ru read from file:
     ./Pseudos/Ru_ONCV_PBEsol-1.0.upf
     MD5 check sum: 8f986bf37b5af91b2f53a4f9afee5fd8
     Pseudo is Norm-conserving, Zval = 16.0
     Generated using ONCVPSP code by D. R. Hamann
     Using radial grid of 1440 points,  6 beta functions with: 
                l(1) =   0
                l(2) =   0
                l(3) =   1
                l(4) =   1
                l(5) =   2
                l(6) =   2

     PseudoPot. # 3 for O  read from file:
     ./Pseudos/O.pbesol-n-kjpaw_psl.0.1.UPF
     MD5 check sum: 81d73d1479e654e5638b0319f0d6c2c7
     Pseudo is Projector augmented-wave + core cor, Zval =  6.0
     Generated using "atomic" code by A. Dal Corso  v.6.0 svn rev. 13079
     Shape of augmentation charge: BESSEL
     Using radial grid of 1095 points,  4 beta functions with: 
                l(1) =   0
                l(2) =   0
                l(3) =   1
                l(4) =   1
     Q(r) pseudized with 0 coefficients 


     atomic species   valence    mass     pseudopotential
        Sr            10.00    87.62000     Sr( 1.00)
        Ru            16.00    50.94150     Ru( 1.00)
        O              6.00    15.99940     O ( 1.00)

     48 Sym. Ops., with inversion, found



   Cartesian axes

     site n.     atom                  positions (alat units)
         1           Sr  tau(   1) = (   0.0000000   0.0000000   0.0000000  )
         2           Ru  tau(   2) = (   0.5000000   0.5000000   0.5000000  )
         3           O   tau(   3) = (   0.5000000   0.5000000   0.0000000  )
         4           O   tau(   4) = (   0.5000000   0.0000000   0.5000000  )
         5           O   tau(   5) = (   0.0000000   0.5000000   0.5000000  )

     number of k points=    10  Methfessel-Paxton smearing, width (Ry)=  0.0200
                       cart. coord. in units 2pi/alat
        k(    1) = (   0.0000000   0.0000000   0.0000000), wk =   0.0160000
        k(    2) = (   0.0000000   0.0000000   0.2000000), wk =   0.0960000
        k(    3) = (   0.0000000   0.0000000   0.4000000), wk =   0.0960000
        k(    4) = (   0.0000000   0.2000000   0.2000000), wk =   0.1920000
        k(    5) = (   0.0000000   0.2000000   0.4000000), wk =   0.3840000
        k(    6) = (   0.0000000   0.4000000   0.4000000), wk =   0.1920000
        k(    7) = (   0.2000000   0.2000000   0.2000000), wk =   0.1280000
        k(    8) = (   0.2000000   0.2000000   0.4000000), wk =   0.3840000
        k(    9) = (   0.2000000   0.4000000   0.4000000), wk =   0.3840000
        k(   10) = (   0.4000000   0.4000000   0.4000000), wk =   0.1280000

     Dense  grid:   131491 G-vectors     FFT dimensions: (  64,  64,  64)

     Smooth grid:    25341 G-vectors     FFT dimensions: (  40,  40,  40)

     Estimated max dynamical RAM per process >      65.94 MB

     Estimated total dynamical RAM >     527.51 MB

     Initial potential from superposition of free atoms

     starting charge      43.9687, renormalised to      44.0000

     negative rho (up, down):  6.385E-02 0.000E+00
     Starting wfcs are   35 randomized atomic wfcs
     Checking if some PAW data can be deallocated... 

     total cpu time spent up to now is        2.0 secs

     per-process dynamical memory:    38.5 Mb

     Self-consistent Calculation

     iteration #  1     ecut=    60.00 Ry     beta= 0.10
     Davidson diagonalization with overlap
     ethr =  1.00E-02,  avg # of iterations =  2.0

     negative rho (up, down):  6.369E-02 0.000E+00

     total cpu time spent up to now is        3.3 secs

     total energy              =    -382.50088960 Ry
     estimated scf accuracy    <       1.14954090 Ry

     iteration #  2     ecut=    60.00 Ry     beta= 0.10
     Davidson diagonalization with overlap
     ethr =  2.61E-03,  avg # of iterations =  1.0

     negative rho (up, down):  6.278E-02 0.000E+00

     total cpu time spent up to now is        4.5 secs

     total energy              =    -382.17586041 Ry
     estimated scf accuracy    <       0.83556395 Ry

     iteration #  3     ecut=    60.00 Ry     beta= 0.10
     Davidson diagonalization with overlap
     ethr =  1.90E-03,  avg # of iterations =  2.0

     negative rho (up, down):  6.285E-02 0.000E+00

     total cpu time spent up to now is        5.6 secs

     total energy              =    -382.31881497 Ry
     estimated scf accuracy    <       0.06507607 Ry

     iteration #  4     ecut=    60.00 Ry     beta= 0.10
     Davidson diagonalization with overlap
     ethr =  1.48E-04,  avg # of iterations =  4.2

     negative rho (up, down):  6.381E-02 0.000E+00

     total cpu time spent up to now is        6.9 secs

     total energy              =    -382.30052378 Ry
     estimated scf accuracy    <       0.05521440 Ry

     iteration #  5     ecut=    60.00 Ry     beta= 0.10
     Davidson diagonalization with overlap
     ethr =  1.25E-04,  avg # of iterations =  2.1

     negative rho (up, down):  6.395E-02 0.000E+00

     total cpu time spent up to now is        8.1 secs

     total energy              =    -382.29605893 Ry
     estimated scf accuracy    <       0.08669547 Ry

     iteration #  6     ecut=    60.00 Ry     beta= 0.10
     Davidson diagonalization with overlap
     ethr =  1.25E-04,  avg # of iterations =  2.0

     negative rho (up, down):  6.431E-02 0.000E+00

     total cpu time spent up to now is        9.3 secs

     total energy              =    -382.30047514 Ry
     estimated scf accuracy    <       0.01430040 Ry

     iteration #  7     ecut=    60.00 Ry     beta= 0.10
     Davidson diagonalization with overlap
     ethr =  3.25E-05,  avg # of iterations =  2.4

     negative rho (up, down):  6.643E-02 0.000E+00

     total cpu time spent up to now is       10.2 secs

     total energy              =    -382.29375570 Ry
     estimated scf accuracy    <       0.01140661 Ry

     iteration #  8     ecut=    60.00 Ry     beta= 0.10
     Davidson diagonalization with overlap
     ethr =  2.59E-05,  avg # of iterations =  4.1

     negative rho (up, down):  6.636E-02 0.000E+00

     total cpu time spent up to now is       11.5 secs

     total energy              =    -382.29735173 Ry
     estimated scf accuracy    <       0.00079671 Ry

     iteration #  9     ecut=    60.00 Ry     beta= 0.10
     Davidson diagonalization with overlap
     ethr =  1.81E-06,  avg # of iterations =  6.1

     negative rho (up, down):  6.619E-02 0.000E+00

     total cpu time spent up to now is       13.0 secs

     total energy              =    -382.29745088 Ry
     estimated scf accuracy    <       0.00021121 Ry

     iteration # 10     ecut=    60.00 Ry     beta= 0.10
     Davidson diagonalization with overlap
     ethr =  4.80E-07,  avg # of iterations =  3.7

     negative rho (up, down):  6.616E-02 0.000E+00

     total cpu time spent up to now is       14.4 secs

     total energy              =    -382.29734340 Ry
     estimated scf accuracy    <       0.00039132 Ry

     iteration # 11     ecut=    60.00 Ry     beta= 0.10
     Davidson diagonalization with overlap
     ethr =  4.80E-07,  avg # of iterations =  2.1

     negative rho (up, down):  6.616E-02 0.000E+00

     total cpu time spent up to now is       15.8 secs

     total energy              =    -382.29742482 Ry
     estimated scf accuracy    <       0.00002097 Ry

     iteration # 12     ecut=    60.00 Ry     beta= 0.10
     Davidson diagonalization with overlap
     ethr =  4.77E-08,  avg # of iterations =  2.1

     negative rho (up, down):  6.618E-02 0.000E+00

     total cpu time spent up to now is       17.1 secs

     total energy              =    -382.29743546 Ry
     estimated scf accuracy    <       0.00001714 Ry

     iteration # 13     ecut=    60.00 Ry     beta= 0.10
     Davidson diagonalization with overlap
     ethr =  3.90E-08,  avg # of iterations =  1.0

     negative rho (up, down):  6.623E-02 0.000E+00

     total cpu time spent up to now is       18.3 secs

     total energy              =    -382.29743458 Ry
     estimated scf accuracy    <       0.00000837 Ry

     iteration # 14     ecut=    60.00 Ry     beta= 0.10
     Davidson diagonalization with overlap
     ethr =  1.90E-08,  avg # of iterations =  2.3

     negative rho (up, down):  6.623E-02 0.000E+00

     total cpu time spent up to now is       19.6 secs

     total energy              =    -382.29744033 Ry
     estimated scf accuracy    <       0.00000006 Ry

     iteration # 15     ecut=    60.00 Ry     beta= 0.10
     Davidson diagonalization with overlap
     ethr =  1.39E-10,  avg # of iterations =  4.5

     negative rho (up, down):  6.623E-02 0.000E+00

     total cpu time spent up to now is       21.2 secs

     total energy              =    -382.29744334 Ry
     estimated scf accuracy    <       0.00000010 Ry

     iteration # 16     ecut=    60.00 Ry     beta= 0.10
     Davidson diagonalization with overlap
     ethr =  1.39E-10,  avg # of iterations =  1.0

     negative rho (up, down):  6.621E-02 0.000E+00

     total cpu time spent up to now is       22.3 secs

     total energy              =    -382.29744568 Ry
     estimated scf accuracy    <       0.00000008 Ry

     iteration # 17     ecut=    60.00 Ry     beta= 0.10
     Davidson diagonalization with overlap
     ethr =  1.39E-10,  avg # of iterations =  3.4

     negative rho (up, down):  6.621E-02 0.000E+00

     total cpu time spent up to now is       23.8 secs

     total energy              =    -382.29744762 Ry
     estimated scf accuracy    <       0.00000003 Ry

     iteration # 18     ecut=    60.00 Ry     beta= 0.10
     Davidson diagonalization with overlap
     ethr =  6.60E-11,  avg # of iterations =  2.2

     negative rho (up, down):  6.621E-02 0.000E+00

     total cpu time spent up to now is       25.0 secs

     total energy              =    -382.29744918 Ry
     estimated scf accuracy    <          2.7E-10 Ry

     iteration # 19     ecut=    60.00 Ry     beta= 0.10
     Davidson diagonalization with overlap
     ethr =  6.22E-13,  avg # of iterations =  4.7

     negative rho (up, down):  6.621E-02 0.000E+00

     total cpu time spent up to now is       26.6 secs

     total energy              =    -382.29745044 Ry
     estimated scf accuracy    <          5.3E-10 Ry

     iteration # 20     ecut=    60.00 Ry     beta= 0.10
     Davidson diagonalization with overlap
     ethr =  6.22E-13,  avg # of iterations =  1.9

     negative rho (up, down):  6.621E-02 0.000E+00

     total cpu time spent up to now is       27.7 secs

     total energy              =    -382.29745146 Ry
     estimated scf accuracy    <          5.3E-10 Ry

     iteration # 21     ecut=    60.00 Ry     beta= 0.10
     Davidson diagonalization with overlap
     ethr =  6.22E-13,  avg # of iterations =  1.9

     negative rho (up, down):  6.621E-02 0.000E+00

     total cpu time spent up to now is       28.8 secs

     total energy              =    -382.29745229 Ry
     estimated scf accuracy    <          6.4E-10 Ry

     iteration # 22     ecut=    60.00 Ry     beta= 0.10
     Davidson diagonalization with overlap
     ethr =  6.22E-13,  avg # of iterations =  2.4

     negative rho (up, down):  6.621E-02 0.000E+00

     total cpu time spent up to now is       30.0 secs

     End of self-consistent calculation

          k = 0.0000 0.0000 0.0000 (  3119 PWs)   bands (ev):

   -60.8938 -30.9388 -30.9388 -30.9388 -21.1360  -6.4154  -5.5307  -5.5307
    -3.1570  -3.1570  -3.1570   8.1002   8.1002   8.1002  10.0263  10.0263
    10.0263  10.4667  10.4667  10.4667  10.6105  10.6105  10.6105  13.3443
    13.3443  16.7633

          k = 0.0000 0.0000 0.2000 (  3150 PWs)   bands (ev):

   -60.8937 -30.9469 -30.9384 -30.9384 -21.1272  -6.4232  -5.5179  -5.4468
    -3.1404  -3.1404  -2.9729   7.0380   8.0315   8.0315   8.9591   8.9591
     9.5577   9.7251  10.3599  10.3599  10.4996  11.9852  11.9852  13.3501
    14.9467  17.3791

          k = 0.0000 0.0000 0.4000 (  3158 PWs)   bands (ev):

   -60.8935 -30.9599 -30.9377 -30.9377 -21.1130  -6.5442  -5.4972  -5.1171
    -3.1132  -3.1132  -2.7123   5.4693   7.9326   7.9326   8.2180   8.2180
     8.8040   9.3066  10.2398  10.2398  10.5542  13.2257  13.2257  13.3573
    16.3768  18.5444

          k = 0.0000 0.2000 0.2000 (  3163 PWs)   bands (ev):

   -60.8936 -30.9465 -30.9463 -30.9380 -21.1192  -6.3415  -5.4882  -5.4401
    -3.1219  -3.0646  -2.9198   6.9798   7.0162   7.9430   7.9431   8.5815
     9.4930   9.5353   9.8191  10.2768  11.8810  12.0464  12.2645  14.1465
    15.8387  17.8783

          k = 0.0000 0.2000 0.4000 (  3165 PWs)   bands (ev):

   -60.8934 -30.9594 -30.9457 -30.9373 -21.1062  -6.3436  -5.4365  -5.2334
    -3.0917  -3.0155  -2.7771   5.4577   6.8731   7.1764   7.8001   8.0118
     9.2280   9.3535   9.6812  10.2315  11.9361  13.2012  13.2179  14.3318
    17.2279  18.7950

          k = 0.0000 0.4000 0.4000 (  3151 PWs)   bands (ev):

   -60.8932 -30.9586 -30.9586 -30.9366 -21.0951  -5.9910  -5.4194  -5.3314
    -3.0565  -2.8798  -2.8406   5.3335   5.6029   6.0962   7.5868   7.6369
     9.0336   9.4921   9.6430  10.9917  13.1383  13.1949  13.5683  14.7706
    18.7561  19.2757

          k = 0.2000 0.2000 0.2000 (  3143 PWs)   bands (ev):

   -60.8935 -30.9461 -30.9459 -30.9459 -21.1117  -6.2110  -5.4396  -5.4396
    -3.1172  -3.1172  -2.8363   6.9027   6.9815   6.9815   7.9048   7.9048
     8.2537  10.0704  10.0704  10.4097  12.1749  12.4035  12.4035  15.8303
    15.8303  18.3554

          k = 0.2000 0.2000 0.4000 (  3174 PWs)   bands (ev):

   -60.8933 -30.9589 -30.9453 -30.9452 -21.0995  -6.1316  -5.3553  -5.2643
    -3.2087  -2.9803  -2.8266   5.4531   6.7435   7.0010   7.2791   7.2919
     8.1422   9.9929  10.0832  10.3837  12.4157  13.2366  13.3155  15.7988
    17.5121  19.1581

          k = 0.2000 0.4000 0.4000 (  3169 PWs)   bands (ev):

   -60.8931 -30.9582 -30.9581 -30.9446 -21.0886  -5.7529  -5.3137  -5.2426
    -3.2208  -3.0457  -2.9264   5.3379   5.6102   6.3055   7.0783   7.2124
     7.5408  10.1835  10.2809  11.0098  13.3349  13.3904  13.6733  16.5317
    18.7348  19.1244

          k = 0.4000 0.4000 0.4000 (  3169 PWs)   bands (ev):

   -60.8929 -30.9575 -30.9574 -30.9574 -21.0779  -5.3164  -5.1043  -5.1043
    -3.3508  -3.3508  -3.1853   5.3455   5.3455   5.9117   6.6077   6.7809
     6.7809  10.9430  10.9430  11.1002  13.8250  13.8649  13.8649  18.4802
    18.4802  18.6424

     the Fermi energy is    13.3058 ev

!    total energy              =    -382.29745580 Ry
     estimated scf accuracy    <          2.1E-11 Ry
     smearing contrib. (-TS)   =      -0.00583178 Ry
     internal energy E=F+TS    =    -382.29162402 Ry

     The total energy is F=E-TS. E is the sum of the following terms:
     one-electron contribution =    -109.30134118 Ry
     hartree contribution      =      80.17224194 Ry
     xc contribution           =     -59.92585046 Ry
     ewald contribution        =    -265.92436764 Ry
     one-center paw contrib.   =     -27.31230668 Ry

     convergence has been achieved in  22 iterations

     Writing all to output data dir ./QE_tmp/sro.save/

     init_run     :      1.74s CPU      1.80s WALL (       1 calls)
     electrons    :     26.32s CPU     27.94s WALL (       1 calls)

     Called by init_run:
     wfcinit      :      0.41s CPU      0.41s WALL (       1 calls)
     potinit      :      0.40s CPU      0.40s WALL (       1 calls)
     hinit0       :      0.63s CPU      0.64s WALL (       1 calls)

     Called by electrons:
     c_bands      :     16.91s CPU     17.06s WALL (      22 calls)
     sum_band     :      5.33s CPU      6.07s WALL (      22 calls)
     v_of_rho     :      0.93s CPU      0.94s WALL (      23 calls)
     newd         :      1.86s CPU      2.62s WALL (      23 calls)
     PAW_pot      :      0.94s CPU      0.94s WALL (      23 calls)
     mix_rho      :      0.43s CPU      0.43s WALL (      22 calls)

     Called by c_bands:
     init_us_2    :      0.13s CPU      0.14s WALL (     450 calls)
     init_us_2:cp :      0.13s CPU      0.13s WALL (     450 calls)
     cegterg      :     16.43s CPU     16.57s WALL (     220 calls)

     Called by *egterg:
     cdiaghg      :      0.89s CPU      0.91s WALL (     811 calls)
     h_psi        :     13.15s CPU     13.26s WALL (     821 calls)
     s_psi        :      0.21s CPU      0.22s WALL (     821 calls)
     g_psi        :      0.05s CPU      0.05s WALL (     591 calls)

     Called by h_psi:
     h_psi:calbec :      0.64s CPU      0.65s WALL (     821 calls)
     vloc_psi     :     12.26s CPU     12.37s WALL (     821 calls)
     add_vuspsi   :      0.23s CPU      0.23s WALL (     821 calls)

     General routines
     calbec       :      0.92s CPU      0.92s WALL (    1041 calls)
     fft          :      0.97s CPU      0.98s WALL (     297 calls)
     ffts         :      0.42s CPU      0.42s WALL (     502 calls)
     fftw         :     14.03s CPU     14.16s WALL (   34408 calls)
     interpolate  :      0.25s CPU      0.25s WALL (      23 calls)

     Parallel routines

     PWSCF        :     28.30s CPU     30.02s WALL


   This run was terminated on:  21:35: 5  16Jun2025            

=------------------------------------------------------------------------------=
   JOB DONE.
=------------------------------------------------------------------------------=
